<VTKFile type="UnstructuredGrid"  version="0.1">
<UnstructuredGrid>
<Piece NumberOfPoints="713" NumberOfCells="1304">
<Points>
<DataArray type="Float64" NumberOfComponents="3" format="ascii">
0.0 0.0 0.0
10.0 0.0 0.0
10.0 2.0 0.0
5.0 2.0 0.0
0.0 2.0 0.0
0.199999999999856 0.0 0.0
0.3999999999996677 0.0 0.0
0.5999999999994683 0.0 0.0
0.7999999999993286 0.0 0.0
0.9999999999991888 0.0 0.0
1.199999999999033 0.0 0.0
1.399999999998576 0.0 0.0
1.599999999997992 0.0 0.0
1.799999999997408 0.0 0.0
1.999999999996825 0.0 0.0
2.199999999996241 0.0 0.0
2.399999999995657 0.0 0.0
2.599999999995073 0.0 0.0
2.79999999999449 0.0 0.0
2.999999999993906 0.0 0.0
3.199999999993322 0.0 0.0
3.399999999992738 0.0 0.0
3.599999999992154 0.0 0.0
3.799999999991571 0.0 0.0
3.999999999991022 0.0 0.0
4.199999999991187 0.0 0.0
4.399999999991491 0.0 0.0
4.599999999991795 0.0 0.0
4.799999999992099 0.0 0.0
4.999999999992403 0.0 0.0
5.199999999992706 0.0 0.0
5.39999999999301 0.0 0.0
5.599999999993313 0.0 0.0
5.799999999993618 0.0 0.0
5.999999999993922 0.0 0.0
6.199999999994227 0.0 0.0
6.39999999999453 0.0 0.0
6.599999999994833 0.0 0.0
6.799999999995138 0.0 0.0
6.999999999995442 0.0 0.0
7.199999999995747 0.0 0.0
7.39999999999605 0.0 0.0
7.599999999996353 0.0 0.0
7.799999999996658 0.0 0.0
7.999999999996962 0.0 0.0
8.199999999997265 0.0 0.0
8.399999999997569 0.0 0.0
8.599999999997873 0.0 0.0
8.799999999998176 0.0 0.0
8.99999999999848 0.0 0.0
9.199999999998786 0.0 0.0
9.399999999999089 0.0 0.0
9.599999999999392 0.0 0.0
9.799999999999697 0.0 0.0
10.0 0.1999999999996293 0.0
10.0 0.3999999999991157 0.0
10.0 0.5999999999985328 0.0
10.0 0.7999999999979498 0.0
10.0 0.9999999999973885 0.0
10.0 1.199999999997894 0.0
10.0 1.39999999999842 0.0
10.0 1.599999999998947 0.0
10.0 1.799999999999474 0.0
9.799999999999999 2.0 0.0
9.6 2.0 0.0
9.399999999999999 2.0 0.0
9.2 2.0 0.0
8.999999999999998 2.0 0.0
8.799999999999999 2.0 0.0
8.599999999999998 2.0 0.0
8.399999999999999 2.0 0.0
8.2 2.0 0.0
7.999999999999998 2.0 0.0
7.799999999999999 2.0 0.0
7.599999999999999 2.0 0.0
7.399999999999999 2.0 0.0
7.199999999999999 2.0 0.0
7.0 2.0 0.0
6.799999999999999 2.0 0.0
6.6 2.0 0.0
6.399999999999999 2.0 0.0
6.199999999999999 2.0 0.0
5.999999999999999 2.0 0.0
5.8 2.0 0.0
5.6 2.0 0.0
5.399999999999999 2.0 0.0
5.199999999999999 2.0 0.0
4.8 2.0 0.0
4.6 2.0 0.0
4.399999999999999 2.0 0.0
4.199999999999998 2.0 0.0
3.999999999999999 2.0 0.0
3.799999999999999 2.0 0.0
3.599999999999999 2.0 0.0
3.399999999999999 2.0 0.0
3.199999999999998 2.0 0.0
2.999999999999999 2.0 0.0
2.799999999999999 2.0 0.0
2.599999999999999 2.0 0.0
2.399999999999999 2.0 0.0
2.199999999999999 2.0 0.0
2.0 2.0 0.0
1.799999999999999 2.0 0.0
1.599999999999999 2.0 0.0
1.399999999999999 2.0 0.0
1.199999999999999 2.0 0.0
0.9999999999999991 2.0 0.0
0.7999999999999998 2.0 0.0
0.5999999999999996 2.0 0.0
0.3999999999999995 2.0 0.0
0.1999999999999993 2.0 0.0
0.0 1.799999999999167 0.0
0.0 1.6 0.0
0.0 1.400000000001387 0.0
0.0 1.200000000002774 0.0
0.0 1.000000000004117 0.0
0.0 0.8000000000033287 0.0
0.0 0.6000000000024965 0.0
0.0 0.4000000000016644 0.0
0.0 0.200000000000832 0.0
1.499207686858938 0.9671416246672391 0.0
2.690335006295381 0.9619521672166851 0.0
3.892537609238439 1.007271393615351 0.0
8.916602958236062 0.9848120741100651 0.0
7.714518201951718 1.024234589865042 0.0
6.514518201951581 1.024234589865268 0.0
5.299999999999998 1.000000000000349 0.0
0.7620577975594133 1.201991596673393 0.0
4.61755859746166 1.240410629378135 0.0
2.099999999996533 0.6749999999988996 0.0
3.289480163184942 0.6802242156869155 0.0
8.299999999999976 1.325000000000064 0.0
7.110519836808121 1.319775784312006 0.0
5.893184537067197 1.292851873188582 0.0
3.268568008578649 1.341967835735878 0.0
2.118368267083699 1.321829331075689 0.0
5.930896443153832 0.6493414313150682 0.0
7.106926174231782 0.6329785805444448 0.0
8.306926174233002 0.6329785805444098 0.0
4.427960725065653 0.6389803625370323 0.0
0.9828791719046732 0.6520555711814596 0.0
9.383333333333349 0.6166666666667164 0.0
9.383333333333326 1.383333333333367 0.0
4.974443803660211 0.5526668589022862 0.0
1.248084267804327 1.464555585366204 0.0
4.139486343919472 1.468449088519687 0.0
5.077806736162063 1.478342020848787 0.0
1.629462398503482 0.5098631373669138 0.0
2.579462070540726 0.5133714280880515 0.0
3.770778974032556 0.5099482598296803 0.0
8.764748922637567 1.526880805960684 0.0
7.820537929455645 1.486628571911716 0.0
6.632254923791462 1.492045881343967 0.0
2.796478414430566 1.477149214423874 0.0
6.403521585563812 0.5228507855762514 0.0
7.603521585564883 0.5228507855756581 0.0
8.783559188644787 0.5066440811355862 0.0
0.5060338924245764 0.5082251307884346 0.0
5.451633334958382 0.4799315318847731 0.0
1.683269995544083 1.547372422998862 0.0
0.448590368789599 1.551409631210402 0.0
5.545526974704655 1.582008455135239 0.0
3.666056976948354 1.56999765613834 0.0
0.4385739326402744 0.9352922270094057 0.0
9.58170539854767 0.9922137522194456 0.0
4.93200119575972 0.9247090920592975 0.0
6.20679636316332 1.642443126922768 0.0
7.418963044745086 1.587405313446662 0.0
2.98103695524982 0.412594686552066 0.0
2.420975602092416 1.592770352831584 0.0
7.97902439790374 0.4072296471687943 0.0
6.779024397902082 0.4072296471687297 0.0
1.130444757308209 0.9859238872709168 0.0
0.8901814758011342 1.60566856081121 0.0
4.263670373274499 0.9915754392410991 0.0
3.096698167273431 1.009056907826855 0.0
6.088506433998166 0.9857489435828969 0.0
1.902225037409936 1.003483800311746 0.0
7.288506433998439 0.9857489435828686 0.0
8.498964973312972 1.005823551167602 0.0
2.307571737417198 1.008136792450924 0.0
8.100397971125554 1.000138280273345 0.0
6.900397971125225 1.000138280273792 0.0
3.499307350770321 0.9996496628144824 0.0
5.703656022566558 0.9885479657552226 0.0
4.719420624357892 1.622286409566126 0.0
4.099803549896894 0.3600308081356619 0.0
1.286100671532495 0.3637431910670685 0.0
9.120549139677793 1.655065205594329 0.0
9.11726214008418 0.3400668903113251 0.0
4.642568097328033 0.3514924793220939 0.0
9.630437629189052 0.3309104953729904 0.0
9.674493769554315 1.668196579944218 0.0
1.936458797611609 0.3337070483410596 0.0
3.461817573918652 0.3447876019040473 0.0
8.440152788772068 1.649667667046397 0.0
6.973083089482548 1.643748677366674 0.0
3.126874515006838 1.659115470008545 0.0
6.070607878384977 0.3410183041038941 0.0
7.255014454789089 0.32792256737713 0.0
8.462493615948901 0.3368393217476116 0.0
9.236261261261264 0.9276047786917867 0.0
5.885444386845415 1.667751020273455 0.0
0.8062340689595878 0.3261579034781319 0.0
2.29463843780282 0.308358158429197 0.0
8.10536156219338 1.691641841570632 0.0
4.041916759198581 0.7211683801597477 0.0
1.324377365289917 0.710525897087282 0.0
9.023167917315867 1.292262965009952 0.0
2.044244009166302 1.693807225416931 0.0
0.7675765545556328 0.8969765944392112 0.0
2.86965991063896 0.7069213925303978 0.0
6.330340089355722 1.293078607468788 0.0
7.530340089355831 1.29307860746885 0.0
2.509347777214458 1.27231292939881 0.0
7.890652222779963 0.7276870706009825 0.0
6.690652222780154 0.7276870706013264 0.0
4.380959112578968 1.65866292149053 0.0
0.3278422400819535 1.233362752678148 0.0
5.754468991464942 0.3469215055361071 0.0
9.69195804401614 0.7000195364707393 0.0
9.691250997975434 1.303243780084337 0.0
5.54324561063747 1.237401556904767 0.0
9.044596057577811 0.6843248705785732 0.0
5.208929198448351 0.3519433027337513 0.0
3.708880196230617 1.249762029554333 0.0
1.713349558540635 1.234899745098077 0.0
4.586522821995393 0.9261740906803194 0.0
5.241145838821565 0.7007005766013242 0.0
1.434457446926135 1.701926055218157 0.0
0.2821921707428039 0.3393165318407161 0.0
3.42846431357046 1.714274134409306 0.0
5.26283485467567 1.710141275531951 0.0
3.966530105129177 1.718376080180638 0.0
4.891301048299285 1.259923533724591 0.0
0.2787500712946937 0.6906723798523376 0.0
1.822166578929051 0.7301892210727335 0.0
8.593276160688786 1.287322908694633 0.0
2.386017956680413 0.7288816957021155 0.0
3.576911792171353 0.7225526638483954 0.0
8.013982043315597 1.271118304297217 0.0
6.82303669320588 1.277631295759485 0.0
2.891837633696712 1.215141906356511 0.0
8.708162366297856 0.7848580936429009 0.0
7.496736072543097 0.7897651325976158 0.0
6.296736072542775 0.7897651325982009 0.0
5.523181420933933 0.7588744249744506 0.0
4.725538117155759 0.6529070682798582 0.0
2.736307197014292 0.273961667653487 0.0
7.663692802980817 1.726038332346062 0.0
6.446842959287713 1.783714797320288 0.0
1.126188383272983 1.743715177525389 0.0
2.64757240694847 1.787239829472812 0.0
6.546646507559373 0.2589894635657943 0.0
7.746646507561152 0.2589894635657218 0.0
4.079302268890254 1.221431431691139 0.0
4.433746883463333 0.2983726043497702 0.0
1.032697650548726 1.318076986199429 0.0
1.309492735411376 1.208980965369829 0.0
3.896105387998365 0.2579746081881307 0.0
9.378751775005455 1.725996478164223 0.0
9.3965279828929 0.2649862374471925 0.0
1.515757555362918 0.2603060454608533 0.0
4.959097093232828 1.726144293543605 0.0
4.912501341257775 0.2529154558175828 0.0
4.342421824442713 1.285376618065631 0.0
7.023506283123107 0.293611963231815 0.0
8.215829626877609 0.2682061590942965 0.0
5.28145265730745 1.291130016052329 0.0
8.693992162747364 1.744100892812201 0.0
0.6256567126095668 1.775064851453201 0.0
0.2724967459749605 1.756941612685287 0.0
8.90781713264278 0.2741674349222226 0.0
7.184202236567151 1.709454269177068 0.0
3.212962614055919 0.2641656831057426 0.0
0.6761590188374282 0.6746441670621973 0.0
1.020489328989316 0.2487299689497893 0.0
1.485017749467193 1.402133856149482 0.0
6.734223224917944 1.790518105434539 0.0
2.657549589911705 0.7636227781082678 0.0
6.542590471647475 1.237213715285722 0.0
7.742745187066703 1.235538225115726 0.0
0.5794341726414672 0.2480285055479751 0.0
1.842901067642841 1.760146518280044 0.0
3.84389577648662 0.7524680119172447 0.0
3.061589173628368 1.407936939342627 0.0
6.144447294584154 0.5911674363009913 0.0
7.344447294585433 0.5911674362995804 0.0
8.544447294586682 0.5911674362982269 0.0
5.491507940982565 0.1734458797927824 0.0
[...]
<PointData Vectors="fields">
<DataArray type="Float64" Name="U" NumberOfComponents="3" format="ascii">
0.0 0.0 0.0
0.027179337704422143 0.0 0.0
0.0022990246926999137 -0.004992833797241676 0.0
0.013529285010894747 -0.04337433364991319 0.0
0.02475262294332935 -0.0047275112344771445 0.0
0.0002992931478449589 -0.005194505211668253 0.0
0.000867615906406884 -0.008519197583726927 0.0
0.0013788116909956927 -0.011464949018534636 0.0
0.0018069352391591213 -0.014049988846928057 0.0
0.0021839818005557512 -0.016518022720868653 0.0
0.0025492021271377 -0.018888386855489415 0.0
0.0029170163599541656 -0.021168246988297817 0.0
0.003321129700240962 -0.023370392125811903 0.0
0.0037373025410384854 -0.025495624652009934 0.0
0.004185015231287477 -0.027520165444747096 0.0
0.004653373760537685 -0.02944367614872517 0.0
0.005161992290498476 -0.03126848632152582 0.0
0.005677638770563919 -0.032979311430550204 0.0
0.006244432143046989 -0.03457690788906215 0.0
0.006807444030617195 -0.036055036678804865 0.0
0.007415173629399245 -0.03740814169931479 0.0
0.00802442481707308 -0.038624804549496905 0.0
0.008664631110141945 -0.039714845949559555 0.0
0.009310456443595311 -0.040642200871234865 0.0
0.009963027629558713 -0.0414753892831341 0.0
0.010642537270516 -0.042147550156447756 0.0
0.011315925870901007 -0.042671152565549805 0.0
0.01201144971179932 -0.04305523821998894 0.0
0.01269826795920278 -0.043283203862781734 0.0
0.013417022663618095 -0.04337033229118936 0.0
0.014119686802611213 -0.04330811356659579 0.0
0.014826163469505143 -0.04309170456823282 0.0
0.015533309649586834 -0.04272829071332724 0.0
0.01623434383212129 -0.042212224464706655 0.0
0.016917719596504982 -0.04155472690502382 0.0
0.017614954353689847 -0.04076206981004708 0.0
0.018272903406458908 -0.03978704791606554 0.0
0.01892981535127164 -0.03872143669098734 0.0
0.019552410465577656 -0.037515690653471 0.0
0.02016913924691471 -0.03615899735545737 0.0
0.02074709586378543 -0.03468041116394576 0.0
0.021301177237541775 -0.0330876520301816 0.0
0.021813715403933336 -0.03135281124905078 0.0
0.022314142696382426 -0.0295504665064034 0.0
0.022775065941596298 -0.0276394294659785 0.0
0.02321861850422529 -0.025622847167847504 0.0
0.02362660976804942 -0.02350879521825024 0.0
0.024017858628850124 -0.021320394143570266 0.0
0.024375366658360167 -0.019049062938433847 0.0
0.02474106656668434 -0.016691159608262222 0.0
0.02509954784071834 -0.014250163252250014 0.0
0.02549852180643128 -0.011672336403175117 0.0
0.02594021885909432 -0.00887650127366575 0.0
0.026627624425498278 -0.005553274464480347 0.0
0.022969061296330386 -0.001980179579190794 0.0
0.02025328799182659 -0.0030583429120135818 0.0
0.017781863434226906 -0.0037429467991938943 0.0
0.015513700145517678 -0.004260300707600514 0.0
0.013311419175114636 -0.004584510071355512 0.0
0.01114940425226079 -0.004795406981606539 0.0
0.008989332825948288 -0.0049232897609912795 0.0
0.0067970551145228875 -0.004980681327026219 0.0
0.004566090421672452 -0.004992521481200526 0.0
0.0022974473622071386 -0.007268172224335783 0.0
0.002303776196105812 -0.009572721991503186 0.0
0.002346416902219334 -0.011912203167822056 0.0
0.002444297908520091 -0.014275584197423129 0.0
0.0026058369315016807 -0.01662937566189795 0.0
0.0028253524904588235 -0.01894275803611136 0.0
0.0031045325827254687 -0.021226413801791022 0.0
0.003431563538552127 -0.023429614225144703 0.0
0.0038075545600239416 -0.02555157816555983 0.0
0.004236346990627193 -0.027590152955649316 0.0
0.00468520540774113 -0.029523210756906126 0.0
0.005191096641716074 -0.031355293115326914 0.0
0.00570310613359651 -0.03307468428975246 0.0
0.006264821082963947 -0.03467594500792944 0.0
0.006844113863373932 -0.036159088689303974 0.0
0.007447763318824167 -0.03751324148666183 0.0
0.008059584993039243 -0.03870410322629025 0.0
0.008706175625719528 -0.03981845152902393 0.0
0.009369142655854415 -0.040756891897513095 0.0
0.010029387927597111 -0.041558598766135525 0.0
0.010719282606274848 -0.04222368170616131 0.0
0.011430142824436036 -0.04273430491579965 0.0
0.012114252387487645 -0.04309567571632397 0.0
0.012828058208180674 -0.043311110589442196 0.0
0.014244495485624044 -0.0432762453760563 0.0
0.014925939655144785 -0.04304546622774913 0.0
0.015599362886457873 -0.04266934418239133 0.0
0.01628685663579003 -0.042155584923788327 0.0
0.01696669247481927 -0.041477174202739955 0.0
0.01764305033748655 -0.04065977417879064 0.0
0.01827454093870378 -0.039710793656873536 0.0
0.01891310452793358 -0.03862204744837344 0.0
0.019530803723820715 -0.03740684855780177 0.0
0.020139825538451173 -0.03605650552966856 0.0
0.02070990467546173 -0.03454953123159331 0.0
0.021274504212526003 -0.032971594949125924 0.0
0.021798691614108284 -0.031246663431517222 0.0
0.022292681898090975 -0.029410160530891013 0.0
0.02277128155676431 -0.027466847704917398 0.0
0.023205839003970566 -0.025422366580523846 0.0
0.02358714499497484 -0.023291540257110957 0.0
0.023938029145146103 -0.021068583840244157 0.0
0.02422225058687922 -0.01878095266579538 0.0
0.024449368503489007 -0.016435292581661678 0.0
0.02460661950837898 -0.014067973384419376 0.0
0.024699993635280543 -0.011688736331456236 0.0
0.024745459221516424 -0.00933588329915195 0.0
0.024756255217402198 -0.0070136884283612125 0.0
0.02247206220143898 -0.00472871551179521 0.0
0.02022756222056248 -0.004717481884874406 0.0
0.018026885339978847 -0.00466391440427776 0.0
0.015850203001300384 -0.0045397887934628105 0.0
0.013681976087495187 -0.004310541701095639 0.0
0.011470547606707841 -0.003984747822328215 0.0
0.009188844572335736 -0.003465097581355763 0.0
0.006721956586186076 -0.002748926589837433 0.0
0.0037887669779485475 -0.0015514942268229125 0.0
0.013204683097356423 -0.022411543431648355 0.0
0.0131982757596823 -0.034002224698277635 0.0
0.013492721573271412 -0.04140592624991566 0.0
0.013544709467644389 -0.017748362269130614 0.0
0.013297307977063185 -0.03059143468435723 0.0
0.013372646098989778 -0.0395549762337876 0.0
0.0134744321920527 -0.04359217033915636 0.0
0.015834719409735458 -0.013642090960718542 0.0
0.013798018966865888 -0.04342319049119006 0.0
0.010625198820300663 -0.02870726894316459 0.0
0.011669978799958885 -0.038260821527502105 0.0
0.010364469589260364 -0.02469466542496987 0.0
0.011327821810757342 -0.03562662986684594 0.0
0.012608934583661482 -0.042271260783663535 0.0
0.015421375087749763 -0.03813026859757046 0.0
0.016297310379994497 -0.02885965066027967 0.0
0.014577824526900965 -0.042132077174343176 0.0
0.0159957026795549 -0.03565501255461869 0.0
0.017023486992728352 -0.024674462966974002 0.0
0.012749103765174932 -0.04305494706176888 0.0
0.009854496767540454 -0.01638164327357591 0.0
0.017527928229008595 -0.011957209861953252 0.0
0.009203734196732356 -0.012104003842405077 0.0
0.013401304985355115 -0.04366144595680775 0.0
0.01835147654081587 -0.019456160372817333 0.0
0.014862040152038982 -0.042235291855327525 0.0
0.013367754228598604 -0.04364584812673762 0.0
0.008680694691009449 -0.02383777039504637 0.0
0.0097434870093927 -0.03302347149098447 0.0
0.011426690920801803 -0.04079294047471746 0.0
0.008001330084422859 -0.019461011366955477 0.0
0.009292919201750745 -0.029521480113811557 0.0
0.010830163977905604 -0.038793113159431396 0.0
0.016847048999960836 -0.034772327943981204 0.0
0.01573265691829283 -0.04005939817964499 0.0
0.017380273906734998 -0.031544831697607335 0.0
0.018635465996054812 -0.01934523865814631 0.0
0.008155452389865633 -0.010226626495843976 0.0
0.014256278474947166 -0.043288044913788654 0.0
0.018806604573059535 -0.024334141985101317 0.0
0.019669857189437253 -0.00988778502288466 0.0
0.012416605095675236 -0.04309746305625009 0.0
0.016043060024970985 -0.040272325231514555 0.0
0.013037105765035195 -0.009527312150976774 0.0
0.013336557552451698 -0.009545666202071909 0.0
0.013449395898666299 -0.043738908776229685 0.0
0.010874473106498814 -0.04093615336831125 0.0
0.008993718029112247 -0.033100496880758966 0.0
0.009611125744671701 -0.03612204764913312 0.0
0.01827113488633224 -0.03161644662510906 0.0
0.018861270003175463 -0.027993961913452995 0.0
0.01698700437880951 -0.037856155753413105 0.0
0.013448730511182826 -0.018136715427701004 0.0
0.020090107297858827 -0.015186578652634949 0.0
0.013447773198293846 -0.042692052815132345 0.0
0.013530294394952402 -0.03703733516250625 0.0
0.013540574358415682 -0.0415856639331565 0.0
0.013530550802098662 -0.026739660912927975 0.0
0.013605822889799583 -0.03427610589737413 0.0
0.013396877974381369 -0.022569751879113305 0.0
0.01355043043301324 -0.03069064604099122 0.0
0.013485075983153409 -0.026829273208359324 0.0
0.01349624182259029 -0.03716675770536139 0.0
0.013467091929729946 -0.03952421732208609 0.0
0.013501649909952037 -0.04285611528558118 0.0
0.014107044890922018 -0.04344543624664533 0.0
0.011478649982661076 -0.04204787050390068 0.0
0.006810641947059267 -0.01998952566501717 0.0
0.006386283484749803 -0.015256986953221216 0.0
0.020764001158116236 -0.015349198483593089 0.0
0.012633843312874494 -0.04333634244733277 0.0
0.02102266292967898 -0.008492565513969392 0.0
0.0060512914298508245 -0.00869676149756676 0.0
0.007304451554099633 -0.0270221582719093 0.0
0.010086959053446089 -0.03918153364283696 0.0
0.007036065054603164 -0.023103162261324882 0.0
0.009335936866018078 -0.036535672105678915 0.0
0.01753860061210471 -0.037109438290417344 0.0
0.015874456709182645 -0.04150394427829828 0.0
0.0183903692833174 -0.034420617205979574 0.0
0.02016035837946612 -0.022950669113297455 0.0
0.014087311944574231 -0.013855551216510378 0.0
0.011484659374760531 -0.04216666153695272 0.0
0.0059632762856113375 -0.014202058011426674 0.0
0.007635512766989337 -0.0304622205460177 0.0
0.007049556169688056 -0.026648554189014774 0.0
0.012555879831086695 -0.04196073528162014 0.0
0.010565425647093769 -0.020442884263472034 0.0
0.010298711639536861 -0.016449086845804674 0.0
0.019744306058801085 -0.02804231271867644 0.0
0.012570507689316338 -0.013694310641622527 0.0
0.01147125451279123 -0.03538898594366085 0.0
0.012194664772601012 -0.040489730907658894 0.0
0.011186973127939507 -0.032226776314931836 0.0
0.015599808241587824 -0.032460107706262495 0.0
0.015885735747933966 -0.028915192744153675 0.0
0.015016569734509967 -0.03850388647377007 0.0
0.014903491100286183 -0.04284268740926445 0.0
0.01624880868326801 -0.008334192238402309 0.0
0.01514452360842674 -0.042558204718871694 0.0
0.01653477197749581 -0.00790379351619412 0.0
0.010012012784839574 -0.008395226716307047 0.0
0.013051209002674202 -0.04320144462652935 0.0
0.016763300475700495 -0.016228576876732105 0.0
0.01390098659059783 -0.04352460989007171 0.0
0.014552494322742294 -0.040574635550173335 0.0
0.015757041051031595 -0.02472747905928331 0.0
0.013364849482434991 -0.04339317761903462 0.0
0.013700133947487024 -0.04362414629276945 0.0
0.020656956588587107 -0.021550147240535174 0.0
0.006034499636714602 -0.006876378576642353 0.0
0.017240590909316338 -0.03895154594600779 0.0
0.012869220173694148 -0.04345146412300101 0.0
0.016024253036349467 -0.041535533416416026 0.0
0.013582857859034132 -0.04368222278197678 0.0
0.01033135005898247 -0.007257426840050607 0.0
0.010963868773948645 -0.025907309546551224 0.0
0.010560360133390975 -0.021465874731875712 0.0
0.01128671999700624 -0.03138677309216811 0.0
0.01215593508727379 -0.03990964169631349 0.0
0.011053541256631808 -0.027672449453283825 0.0
0.01184803135481496 -0.03765560742476669 0.0
0.014930054091059804 -0.03555291754244996 0.0
0.01564410006903614 -0.020214049429948287 0.0
0.015145462626834673 -0.03252493437289699 0.0
0.014401483640144241 -0.04064994355262465 0.0
0.013893025006565831 -0.04323907640643019 0.0
0.013121332803257925 -0.04354113426697782 0.0
0.008170451648986813 -0.0342222103693043 0.0
0.007443872413345221 -0.030909971908294847 0.0
0.009667687755333056 -0.03969827525058183 0.0
0.02142789824904831 -0.01797880403002195 0.0
0.019434238579311328 -0.03346747128950316 0.0
0.01734932176940125 -0.03918378631225586 0.0
0.019852874846584562 -0.03016569125397813 0.0
0.014164622395882792 -0.04209259274057966 0.0
0.012059907663362677 -0.042933331467302396 0.0
0.01695138107962719 -0.016926819113095494 0.0
0.015693513391633686 -0.0202112343358657 0.0
0.01064763272406109 -0.041233203807799663 0.0
0.00547478751695699 -0.012176909208659572 0.0
0.021893642270710882 -0.011776019771430599 0.0
0.005961642745415351 -0.02255618853728944 0.0
0.013615748771188868 -0.0435507188476412 0.0
0.01319882773677208 -0.043517831385909644 0.0
0.014120305183038218 -0.042865538146805916 0.0
0.01818583216302164 -0.036149307448377035 0.0
0.020528350011495305 -0.025559180274684613 0.0
0.013210484737189618 -0.04357940918647664 0.0
0.005773488373505029 -0.02023003676101756 0.0
0.02210137074776329 -0.012009508108273694 0.0
0.021977699047390963 -0.007843321035740548 0.0
0.021358465027361915 -0.01787144651266991 0.0
0.008474031684754486 -0.034946849569031976 0.0
0.009104486967578871 -0.03763906447424463 0.0
0.010110090193354786 -0.012519034210803968 0.0
0.005210137729541416 -0.01683704395402899 0.0
0.01754026672465103 -0.02217964842447386 0.0
0.008917005126864238 -0.038038804091472186 0.0
0.011719920195364103 -0.03372143971192237 0.0
0.01228069203643804 -0.039377478069473476 0.0
0.011515179701745426 -0.030306839767020224 0.0
0.004820031257747749 -0.011210670580970465 0.0
0.020697291731546955 -0.02596427079669355 0.0
0.012497927101252065 -0.04117555701276109 0.0
0.016042558311278755 -0.03673940550486322 0.0
0.015053240965711494 -0.04128780388662556 0.0
0.016541070926558245 -0.03377294752943935 0.0
0.017585829154477577 -0.022071390894224524 0.0
0.014842721538784038 -0.04306636776044408 0.0
0.011313143114579606 -0.023130685967982123 0.0
0.018651568730989176 -0.03570562397472315 0.0
0.019506372269912097 -0.032769424450896506 0.0
0.01674114299279566 -0.04066427952407908 0.0
0.018656759777528016 -0.012653085359341143 0.0
0.011321287127757327 -0.012076207963883357 0.0
0.011756699508422497 -0.04267814280202151 0.0
0.015024844425969068 -0.04126929432419607 0.0
0.007163630958612429 -0.03231621682337199 0.0
0.006420547933626144 -0.028741706655968702 0.0
0.014629916060164925 -0.04268087519495549 0.0
0.011017683866541329 -0.019362704282958436 0.0
0.018198131806600466 -0.027219713561415906 0.0
0.015410105103329592 -0.010985310766987458 0.0
0.015680524006693244 -0.04225963806571767 0.0
0.019036995210988464 -0.0065029063056468925 0.0
0.009956600200331938 -0.040154005351072754 0.0
0.005923979117990755 -0.02504151928892221 0.0
0.014293857603517014 -0.043219254122107045 0.0
0.010601357393939468 -0.04142309672498403 0.0
0.015406240851034517 -0.039620681371492654 0.0
0.0202692142263583 -0.030281346747833546 0.0
0.013458044756895078 -0.043731052107746006 0.0
0.013952127978196758 -0.0072385399526489055 0.0
0.01257457288817948 -0.042873286160943956 0.0
0.01321043222060562 -0.04227169222462372 0.0
0.012578016136764614 -0.02472675642316123 0.0
0.012843855533968683 -0.03564257033009407 0.0
0.01266601695142875 -0.02871999484096359 0.0
0.012921411523882872 -0.03826390573081337 0.0
0.005099977429577363 -0.017331600156698396 0.0
0.01430868822681847 -0.0069263045559619894 0.0
0.01686930440296779 -0.04051013719084036 0.0
0.013476572960433374 -0.04372607114979628 0.0
0.013086252398499164 -0.04356251722985331 0.0
0.010687506493573792 -0.009600465394186969 0.0
0.021922240562782934 -0.0202521219857989 0.0
0.01710092189663724 -0.027012038250972897 0.0
0.017065861377182592 -0.030589760273281308 0.0
0.015911541538491038 -0.03724654346209512 0.0
0.010629847290598632 -0.03402957242471831 0.0
0.011037477680899743 -0.03692427701290517 0.0
0.012075804070987147 -0.04151194293813877 0.0
0.006208385110470574 -0.02870944646604329 0.0
0.005594218498481991 -0.024718456366133318 0.0
0.01126199137052437 -0.039945796320937865 0.0
0.009694775216398777 -0.03139719928599103 0.0
0.010153831136802504 -0.034663750839324 0.0
0.01555333895692141 -0.026830745970645057 0.0
0.015115753467871808 -0.011384657030615438 0.0
0.0080223114093483 -0.007166838271620218 0.0
0.018631350130518025 -0.006176115298221419 0.0
0.01413215174965506 -0.038236677407059605 0.0
0.014508988544609037 -0.028877411829545046 0.0
0.013863708966678975 -0.04219728536018125 0.0
0.014326331153067475 -0.0355929723318886 0.0
0.014635004213724408 -0.024547944519367055 0.0
0.020898093965975546 -0.023847271071259012 0.0
0.00815779398289363 -0.005552044674749864 0.0
0.017068685182398805 -0.033282633802331034 0.0
0.015999898715981557 -0.039054361433509516 0.0
0.017568288081824864 -0.02984783702565292 0.0
0.012705003966056325 -0.03240695566315566 0.0
0.013001273872262211 -0.03847565091428623 0.0
0.012630745503394228 -0.02879342959761891 0.0
0.014719739510385358 -0.04312472775116462 0.0
0.0130434292381134 -0.04058102235451923 0.0
0.009563232296228628 -0.03025422608754778 0.0
0.009177858871438183 -0.026404547337094082 0.0
0.015918592491895128 -0.04203603193825314 0.0
0.01385379897217654 -0.04354358144478816 0.0
0.011361431000070563 -0.018321673473163186 0.0
0.01262708234727258 -0.020214045667749776 0.0
0.012405073477269017 -0.01559219778893655 0.0
0.011918800908238296 -0.041856196034791564 0.0
0.012680729003869512 -0.024676408104608638 0.0
0.007154032822804435 -0.03233887494843255 0.0
0.00799448998812936 -0.03545099419803397 0.0
0.013541134413883823 -0.043577084809074886 0.0
0.020418844071650077 -0.02840666792516275 0.0
0.017935050469597223 -0.03807839668705784 0.0
0.010467452812907464 -0.0380654599233612 0.0
0.00992514373066388 -0.03536583236108933 0.0
0.00870172892204032 -0.020881622994339263 0.0
0.022697402748904534 -0.005661212819451845 0.0
0.004688642225851523 -0.007387127254467854 0.0
0.014284180045034017 -0.015483841483200743 0.0
0.014042118238454816 -0.04283823321242163 0.0
0.013210610440625974 -0.04214937866535061 0.0
0.012921942203954644 -0.04262870655098997 0.0
0.011925417992409738 -0.007133840595440134 0.0
0.01216956354717285 -0.04310569948301304 0.0
0.022220787248409604 -0.015520338766127802 0.0
0.012830962457776127 -0.02015718317061522 0.0
0.017784930808690255 -0.010607266928063432 0.0
0.01229826622422734 -0.042455438804897605 0.0
0.013035387396445275 -0.03560339412102233 0.0
0.013187691515725757 -0.0407101082254616 0.0
0.012957039189470446 -0.032605183836518475 0.0
0.008804105328039446 -0.018642359277121413 0.0
0.008978963100418512 -0.025932738017131685 0.0
0.008651758489199336 -0.021653828467960285 0.0
0.011203944825355288 -0.03988031534589406 0.0
0.010631012201830584 -0.03758853016058425 0.0
0.013688031015389054 -0.04317338794322392 0.0
0.010828161011305423 -0.04192009480059805 0.0
0.01866165754198913 -0.01742533254077958 0.0
0.018865306444768738 -0.024679709663767774 0.0
0.01726331094159472 -0.035618936190099856 0.0
0.013072815014678205 -0.04285038674353314 0.0
0.01512589237607026 -0.04217910451841571 0.0
0.004547995087615122 -0.020401676915026336 0.0
0.008254258574556528 -0.01692165669772254 0.0
0.008665748835026793 -0.014553047554592953 0.0
0.01567411609327474 -0.022235339615154198 0.0
0.014849860334172993 -0.036818418777195855 0.0
0.015169705919801667 -0.03397353414086479 0.0
0.014332362968548657 -0.041406105978982456 0.0
0.016599454327584036 -0.03837644824899197 0.0
0.012274076893225055 -0.03696573250838296 0.0
0.012805016062401574 -0.04153252310601674 0.0
0.012092035554787798 -0.034115009664095475 0.0
0.022107092969875355 -0.009860771017304466 0.0
0.013411261365067442 -0.043318875112937076 0.0
0.015657551962019095 -0.0341294292939185 0.0
0.015885336380416726 -0.03108339542414272 0.0
0.014897748440994929 -0.03982422869706069 0.0
0.014474883615759594 -0.03941913227854697 0.0
0.009909891315659653 -0.04048345930786187 0.0
0.013714190942982252 -0.04362115526921893 0.0
0.014779376269881059 -0.0370100498721448 0.0
0.015380522168581353 -0.02661940295942527 0.0
0.015320753509628368 -0.017954727987268656 0.0
0.017954229229546717 -0.03789547131220484 0.0
0.008399567258590495 -0.00989064963633492 0.0
0.018272075752020275 -0.009381595303825579 0.0
0.01987150322874099 -0.03210668310558596 0.0
0.00751173928566576 -0.016440207897710574 0.0
0.012457711391895481 -0.04310882057719832 0.0
0.018493873363424958 -0.014249380833566607 0.0
0.01794942220132271 -0.014623481139371921 0.0