<VTKFile type="UnstructuredGrid"  version="0.1">
<UnstructuredGrid>
<Piece NumberOfPoints="713" NumberOfCells="1304">
<Points>
<DataArray type="Float64" NumberOfComponents="3" format="ascii">
0.0 0.0 0.0
10.0 0.0 0.0
10.0 2.0 0.0
5.0 2.0 0.0
0.0 2.0 0.0
0.199999999999856 0.0 0.0
0.3999999999996677 0.0 0.0
0.5999999999994683 0.0 0.0
0.7999999999993286 0.0 0.0
0.9999999999991888 0.0 0.0
1.199999999999033 0.0 0.0
1.399999999998576 0.0 0.0
1.599999999997992 0.0 0.0
1.799999999997408 0.0 0.0
1.999999999996825 0.0 0.0
2.199999999996241 0.0 0.0
2.399999999995657 0.0 0.0
2.599999999995073 0.0 0.0
2.79999999999449 0.0 0.0
2.999999999993906 0.0 0.0
3.199999999993322 0.0 0.0
3.399999999992738 0.0 0.0
3.599999999992154 0.0 0.0
3.799999999991571 0.0 0.0
3.999999999991022 0.0 0.0
4.199999999991187 0.0 0.0
4.399999999991491 0.0 0.0
4.599999999991795 0.0 0.0
4.799999999992099 0.0 0.0
4.999999999992403 0.0 0.0
5.199999999992706 0.0 0.0
5.39999999999301 0.0 0.0
5.599999999993313 0.0 0.0
5.799999999993618 0.0 0.0
5.999999999993922 0.0 0.0
6.199999999994227 0.0 0.0
6.39999999999453 0.0 0.0
6.599999999994833 0.0 0.0
6.799999999995138 0.0 0.0
6.999999999995442 0.0 0.0
7.199999999995747 0.0 0.0
7.39999999999605 0.0 0.0
7.599999999996353 0.0 0.0
7.799999999996658 0.0 0.0
7.999999999996962 0.0 0.0
8.199999999997265 0.0 0.0
8.399999999997569 0.0 0.0
8.599999999997873 0.0 0.0
8.799999999998176 0.0 0.0
8.99999999999848 0.0 0.0
9.199999999998786 0.0 0.0
9.399999999999089 0.0 0.0
9.599999999999392 0.0 0.0
9.799999999999697 0.0 0.0
10.0 0.1999999999996293 0.0
10.0 0.3999999999991157 0.0
10.0 0.5999999999985328 0.0
10.0 0.7999999999979498 0.0
10.0 0.9999999999973885 0.0
10.0 1.199999999997894 0.0
10.0 1.39999999999842 0.0
10.0 1.599999999998947 0.0
10.0 1.799999999999474 0.0
9.799999999999999 2.0 0.0
9.6 2.0 0.0
9.399999999999999 2.0 0.0
9.2 2.0 0.0
8.999999999999998 2.0 0.0
8.799999999999999 2.0 0.0
8.599999999999998 2.0 0.0
8.399999999999999 2.0 0.0
8.2 2.0 0.0
7.999999999999998 2.0 0.0
7.799999999999999 2.0 0.0
7.599999999999999 2.0 0.0
7.399999999999999 2.0 0.0
7.199999999999999 2.0 0.0
7.0 2.0 0.0
6.799999999999999 2.0 0.0
6.6 2.0 0.0
6.399999999999999 2.0 0.0
6.199999999999999 2.0 0.0
5.999999999999999 2.0 0.0
5.8 2.0 0.0
5.6 2.0 0.0
5.399999999999999 2.0 0.0
5.199999999999999 2.0 0.0
4.8 2.0 0.0
4.6 2.0 0.0
4.399999999999999 2.0 0.0
4.199999999999998 2.0 0.0
3.999999999999999 2.0 0.0
3.799999999999999 2.0 0.0
3.599999999999999 2.0 0.0
3.399999999999999 2.0 0.0
3.199999999999998 2.0 0.0
2.999999999999999 2.0 0.0
2.799999999999999 2.0 0.0
2.599999999999999 2.0 0.0
2.399999999999999 2.0 0.0
2.199999999999999 2.0 0.0
2.0 2.0 0.0
1.799999999999999 2.0 0.0
1.599999999999999 2.0 0.0
1.399999999999999 2.0 0.0
1.199999999999999 2.0 0.0
0.9999999999999991 2.0 0.0
0.7999999999999998 2.0 0.0
0.5999999999999996 2.0 0.0
0.3999999999999995 2.0 0.0
0.1999999999999993 2.0 0.0
0.0 1.799999999999167 0.0
0.0 1.6 0.0
0.0 1.400000000001387 0.0
0.0 1.200000000002774 0.0
0.0 1.000000000004117 0.0
0.0 0.8000000000033287 0.0
0.0 0.6000000000024965 0.0
0.0 0.4000000000016644 0.0
0.0 0.200000000000832 0.0
1.499207686858938 0.9671416246672391 0.0
2.690335006295381 0.9619521672166851 0.0
3.892537609238439 1.007271393615351 0.0
8.916602958236062 0.9848120741100651 0.0
7.714518201951718 1.024234589865042 0.0
6.514518201951581 1.024234589865268 0.0
5.299999999999998 1.000000000000349 0.0
0.7620577975594133 1.201991596673393 0.0
4.61755859746166 1.240410629378135 0.0
2.099999999996533 0.6749999999988996 0.0
3.289480163184942 0.6802242156869155 0.0
8.299999999999976 1.325000000000064 0.0
7.110519836808121 1.319775784312006 0.0
5.893184537067197 1.292851873188582 0.0
3.268568008578649 1.341967835735878 0.0
2.118368267083699 1.321829331075689 0.0
5.930896443153832 0.6493414313150682 0.0
7.106926174231782 0.6329785805444448 0.0
8.306926174233002 0.6329785805444098 0.0
4.427960725065653 0.6389803625370323 0.0
0.9828791719046732 0.6520555711814596 0.0
9.383333333333349 0.6166666666667164 0.0
9.383333333333326 1.383333333333367 0.0
4.974443803660211 0.5526668589022862 0.0
1.248084267804327 1.464555585366204 0.0
4.139486343919472 1.468449088519687 0.0
5.077806736162063 1.478342020848787 0.0
1.629462398503482 0.5098631373669138 0.0
2.579462070540726 0.5133714280880515 0.0
3.770778974032556 0.5099482598296803 0.0
8.764748922637567 1.526880805960684 0.0
7.820537929455645 1.486628571911716 0.0
6.632254923791462 1.492045881343967 0.0
2.796478414430566 1.477149214423874 0.0
6.403521585563812 0.5228507855762514 0.0
7.603521585564883 0.5228507855756581 0.0
8.783559188644787 0.5066440811355862 0.0
0.5060338924245764 0.5082251307884346 0.0
5.451633334958382 0.4799315318847731 0.0
1.683269995544083 1.547372422998862 0.0
0.448590368789599 1.551409631210402 0.0
5.545526974704655 1.582008455135239 0.0
3.666056976948354 1.56999765613834 0.0
0.4385739326402744 0.9352922270094057 0.0
9.58170539854767 0.9922137522194456 0.0
4.93200119575972 0.9247090920592975 0.0
6.20679636316332 1.642443126922768 0.0
7.418963044745086 1.587405313446662 0.0
2.98103695524982 0.412594686552066 0.0
2.420975602092416 1.592770352831584 0.0
7.97902439790374 0.4072296471687943 0.0
6.779024397902082 0.4072296471687297 0.0
1.130444757308209 0.9859238872709168 0.0
0.8901814758011342 1.60566856081121 0.0
4.263670373274499 0.9915754392410991 0.0
3.096698167273431 1.009056907826855 0.0
6.088506433998166 0.9857489435828969 0.0
1.902225037409936 1.003483800311746 0.0
7.288506433998439 0.9857489435828686 0.0
8.498964973312972 1.005823551167602 0.0
2.307571737417198 1.008136792450924 0.0
8.100397971125554 1.000138280273345 0.0
6.900397971125225 1.000138280273792 0.0
3.499307350770321 0.9996496628144824 0.0
5.703656022566558 0.9885479657552226 0.0
4.719420624357892 1.622286409566126 0.0
4.099803549896894 0.3600308081356619 0.0
1.286100671532495 0.3637431910670685 0.0
9.120549139677793 1.655065205594329 0.0
9.11726214008418 0.3400668903113251 0.0
4.642568097328033 0.3514924793220939 0.0
9.630437629189052 0.3309104953729904 0.0
9.674493769554315 1.668196579944218 0.0
1.936458797611609 0.3337070483410596 0.0
3.461817573918652 0.3447876019040473 0.0
8.440152788772068 1.649667667046397 0.0
6.973083089482548 1.643748677366674 0.0
3.126874515006838 1.659115470008545 0.0
6.070607878384977 0.3410183041038941 0.0
7.255014454789089 0.32792256737713 0.0
8.462493615948901 0.3368393217476116 0.0
9.236261261261264 0.9276047786917867 0.0
5.885444386845415 1.667751020273455 0.0
0.8062340689595878 0.3261579034781319 0.0
2.29463843780282 0.308358158429197 0.0
8.10536156219338 1.691641841570632 0.0
4.041916759198581 0.7211683801597477 0.0
1.324377365289917 0.710525897087282 0.0
9.023167917315867 1.292262965009952 0.0
2.044244009166302 1.693807225416931 0.0
0.7675765545556328 0.8969765944392112 0.0
2.86965991063896 0.7069213925303978 0.0
6.330340089355722 1.293078607468788 0.0
7.530340089355831 1.29307860746885 0.0
2.509347777214458 1.27231292939881 0.0
7.890652222779963 0.7276870706009825 0.0
6.690652222780154 0.7276870706013264 0.0
4.380959112578968 1.65866292149053 0.0
0.3278422400819535 1.233362752678148 0.0
5.754468991464942 0.3469215055361071 0.0
9.69195804401614 0.7000195364707393 0.0
9.691250997975434 1.303243780084337 0.0
5.54324561063747 1.237401556904767 0.0
9.044596057577811 0.6843248705785732 0.0
5.208929198448351 0.3519433027337513 0.0
3.708880196230617 1.249762029554333 0.0
1.713349558540635 1.234899745098077 0.0
4.586522821995393 0.9261740906803194 0.0
5.241145838821565 0.7007005766013242 0.0
1.434457446926135 1.701926055218157 0.0
0.2821921707428039 0.3393165318407161 0.0
3.42846431357046 1.714274134409306 0.0
5.26283485467567 1.710141275531951 0.0
3.966530105129177 1.718376080180638 0.0
4.891301048299285 1.259923533724591 0.0
0.2787500712946937 0.6906723798523376 0.0
1.822166578929051 0.7301892210727335 0.0
8.593276160688786 1.287322908694633 0.0
2.386017956680413 0.7288816957021155 0.0
3.576911792171353 0.7225526638483954 0.0
8.013982043315597 1.271118304297217 0.0
6.82303669320588 1.277631295759485 0.0
2.891837633696712 1.215141906356511 0.0
8.708162366297856 0.7848580936429009 0.0
7.496736072543097 0.7897651325976158 0.0
6.296736072542775 0.7897651325982009 0.0
5.523181420933933 0.7588744249744506 0.0
4.725538117155759 0.6529070682798582 0.0
2.736307197014292 0.273961667653487 0.0
7.663692802980817 1.726038332346062 0.0
6.446842959287713 1.783714797320288 0.0
1.126188383272983 1.743715177525389 0.0
2.64757240694847 1.787239829472812 0.0
6.546646507559373 0.2589894635657943 0.0
7.746646507561152 0.2589894635657218 0.0
4.079302268890254 1.221431431691139 0.0
4.433746883463333 0.2983726043497702 0.0
1.032697650548726 1.318076986199429 0.0
1.309492735411376 1.208980965369829 0.0
3.896105387998365 0.2579746081881307 0.0
9.378751775005455 1.725996478164223 0.0
9.3965279828929 0.2649862374471925 0.0
1.515757555362918 0.2603060454608533 0.0
4.959097093232828 1.726144293543605 0.0
4.912501341257775 0.2529154558175828 0.0
4.342421824442713 1.285376618065631 0.0
7.023506283123107 0.293611963231815 0.0
8.215829626877609 0.2682061590942965 0.0
5.28145265730745 1.291130016052329 0.0
8.693992162747364 1.744100892812201 0.0
0.6256567126095668 1.775064851453201 0.0
0.2724967459749605 1.756941612685287 0.0
8.90781713264278 0.2741674349222226 0.0
7.184202236567151 1.709454269177068 0.0
3.212962614055919 0.2641656831057426 0.0
0.6761590188374282 0.6746441670621973 0.0
1.020489328989316 0.2487299689497893 0.0
1.485017749467193 1.402133856149482 0.0
6.734223224917944 1.790518105434539 0.0
2.657549589911705 0.7636227781082678 0.0
6.542590471647475 1.237213715285722 0.0
7.742745187066703 1.235538225115726 0.0
0.5794341726414672 0.2480285055479751 0.0
1.842901067642841 1.760146518280044 0.0
3.84389577648662 0.7524680119172447 0.0
3.061589173628368 1.407936939342627 0.0
6.144447294584154 0.5911674363009913 0.0
7.344447294585433 0.5911674362995804 0.0
8.544447294586682 0.5911674362982269 0.0
5.491507940982565 0.1734458797927824 0.0
[...]
<PointData Vectors="fields">
<DataArray type="Float64" Name="U" NumberOfComponents="3" format="ascii">
0.0 0.0 0.0
0.028782160839304866 0.0 0.0
0.0023574588560994446 -0.00553095717261946 0.0
0.014293679058594404 -0.04610369452060033 0.0
0.026351765172657866 -0.0049151198347776 0.0
0.0002983833631050258 -0.0054465639936527345 0.0
0.0008835657568955703 -0.008973704948581698 0.0
0.0014120261880800778 -0.012104649017504186 0.0
0.0018588490720961737 -0.014863881901529796 0.0
0.0022554366549543525 -0.017499651585878812 0.0
0.0026426866502140337 -0.020032478497938783 0.0
0.003035982300155777 -0.022469648833567463 0.0
0.0034702180661421436 -0.024823410484059834 0.0
0.003918896515886098 -0.027094105812890765 0.0
0.004401305259486518 -0.02925576857456596 0.0
0.004904303044320265 -0.03130798169830524 0.0
0.005448345014242972 -0.033252371120039766 0.0
0.005997095208571117 -0.035073530875959075 0.0
0.006597742888904221 -0.036772052181551974 0.0
0.007192438089630489 -0.03834250566688618 0.0
0.007833040607952903 -0.03977898323547394 0.0
0.008474761017965392 -0.04107027148353068 0.0
0.009149358054942661 -0.042226960795746456 0.0
0.009830489148278715 -0.043211510544886755 0.0
0.010519428899226082 -0.04409555929029152 0.0
0.01123848293788829 -0.044809294864573114 0.0
0.011951586766201231 -0.04536535703090373 0.0
0.012688071834004737 -0.04577338201963702 0.0
0.013414781128634517 -0.046016101533684635 0.0
0.014174240139286056 -0.04610884483340685 0.0
0.014915932166851428 -0.04604296017703931 0.0
0.01566119925706297 -0.045813867396933695 0.0
0.016406677559930957 -0.04542880794655007 0.0
0.01714476479390425 -0.04488217559493878 0.0
0.017862349582366988 -0.04418628374437417 0.0
0.01859185414076685 -0.04334727984166334 0.0
0.01927665254098164 -0.042317269758908815 0.0
0.01995927359156033 -0.0411913532867235 0.0
0.020605856198158853 -0.03991835405138465 0.0
0.021247283934693523 -0.03848732862719032 0.0
0.021849613801381472 -0.03692867455964556 0.0
0.022428332331718034 -0.03525024332868727 0.0
0.022964578781696485 -0.03342386093218945 0.0
0.023488922590230797 -0.031525778816911 0.0
0.023973611083327667 -0.029513872545310692 0.0
0.02444280505924662 -0.027389844942256037 0.0
0.024878273004165233 -0.025161197274306588 0.0
0.025301068317260325 -0.02285039483051071 0.0
0.025693525240433415 -0.020446437662440448 0.0
0.02610125611587159 -0.017943827443723484 0.0
0.02650513163368696 -0.015344004140839794 0.0
0.02695500312762916 -0.012587968869599023 0.0
0.027449874473571934 -0.0095855513856592 0.0
0.028205355430350163 -0.005997486045136795 0.0
0.024238559144204325 -0.0021440400608278946 0.0
0.021326857436581057 -0.0033356239706417382 0.0
0.018697903741353415 -0.004102871762506769 0.0
0.016299922483929058 -0.004689316735813407 0.0
0.01397941435038807 -0.005061615797749322 0.0
0.011704520787694569 -0.005305488770050375 0.0
0.009430545896573782 -0.00545251438832544 0.0
0.007117548631378267 -0.005517952385674264 0.0
0.004758424004099328 -0.005530914734133495 0.0
0.002355493699335552 -0.007941309104515052 0.0
0.0023623818837483087 -0.010385427927818361 0.0
0.0024107857705287115 -0.012870448600913265 0.0
0.002521925201506011 -0.015382242527293465 0.0
0.002703386442843568 -0.017881541474843898 0.0
0.002945130773251349 -0.02033316696227523 0.0
0.0032490372428293493 -0.022748788222216557 0.0
0.003599066271150322 -0.02507406660261363 0.0
0.003996674487485533 -0.027310807833608286 0.0
0.004446991376569651 -0.02945713280808929 0.0
0.0049163687464079415 -0.031492037041278745 0.0
0.005444732796441367 -0.033420341371764375 0.0
0.0059803883291177015 -0.03523088764778184 0.0
0.006569408821629423 -0.03691767232097958 0.0
0.007179150977581818 -0.03848098767806361 0.0
0.007816999052564501 -0.039909142287809105 0.0
0.008465845121966624 -0.04116675580110267 0.0
0.009152869321253495 -0.04234288380943956 0.0
0.009859210815528732 -0.04333457397591066 0.0
0.010563459171337443 -0.04418215004340143 0.0
0.011298977937125513 -0.04488572100921705 0.0
0.01205640506986496 -0.04542604646946588 0.0
0.012785658075265344 -0.04580871758981363 0.0
0.01354611790742248 -0.0460369108189465 0.0
0.015056324300263421 -0.04599958073240409 0.0
0.015783662446602682 -0.04575401845494718 0.0
0.016502648548205504 -0.04535459140250612 0.0
0.01723592029091408 -0.04480894163720903 0.0
0.017960051415871744 -0.04408901221322359 0.0
0.01867959444029165 -0.04322157643255539 0.0
0.019351731688362732 -0.04221470291281988 0.0
0.020031951461641363 -0.04105982519391902 0.0
0.020691309111788014 -0.039770339781254715 0.0
0.021344290914411722 -0.03833687420806468 0.0
0.021958931031256963 -0.03673640107283237 0.0
0.022570142515987268 -0.035058068761599656 0.0
0.02314165818521637 -0.03322157114307012 0.0
0.023681967454293087 -0.031264055619917464 0.0
0.024205599819012796 -0.02919059171780425 0.0
0.024680376783228222 -0.027007279984511478 0.0
0.02509557524087793 -0.024730824332957608 0.0
0.02547568764743512 -0.022355991638873952 0.0
0.025782600943526208 -0.01991207142518702 0.0
0.02602691435517238 -0.017406865432334204 0.0
0.02619586107138485 -0.014879131245697607 0.0
0.026295865585351012 -0.012339823034423382 0.0
0.026344521382693317 -0.00982965144305921 0.0
0.02635567456511266 -0.007352993368160689 0.0
0.0239198424066098 -0.0049165167661434665 0.0
0.02152666495749658 -0.004904717155993462 0.0
0.019180628230361336 -0.0048477309530776825 0.0
0.016860635217797883 -0.004715645973629971 0.0
0.014548500745779763 -0.004472292930186736 0.0
0.012189455239813487 -0.004129088392007458 0.0
0.00975386735408966 -0.003584824361157075 0.0
0.007122803821876878 -0.002839000388088802 0.0
0.004007601303979639 -0.0016008413947799214 0.0
0.014020574303702278 -0.023781003023765856 0.0
0.013990992631123769 -0.036134982217356094 0.0
0.014275379060587096 -0.04398728281862179 0.0
0.014246288629307382 -0.019061270754596307 0.0
0.013994064720981334 -0.032594698395476185 0.0
0.014088487649670819 -0.04203652233457393 0.0
0.01422600585534332 -0.04630854372869191 0.0
0.0168354071637694 -0.014418037322590865 0.0
0.014584390753977031 -0.04612945793983379 0.0
0.01126665430952264 -0.030504841754722258 0.0
0.012353336509295982 -0.040655399905596044 0.0
0.01090675979912231 -0.026393036925765875 0.0
0.011918245737871844 -0.03789651334541556 0.0
0.013292374558653064 -0.044910959148478626 0.0
0.016333398718770323 -0.0405152662955825 0.0
0.0172984983091861 -0.030664998383066935 0.0
0.015383612318921274 -0.044766395350612484 0.0
0.016845360919932988 -0.03792942343298565 0.0
0.0179129361923529 -0.026375137353248333 0.0
0.01347418132729343 -0.04574429952812121 0.0
0.010447747286505766 -0.01734138489195076 0.0
0.018442961239145447 -0.012890915387084208 0.0
0.009664448630909143 -0.013068268903484817 0.0
0.014157856611892516 -0.04639046592578795 0.0
0.019514068149662805 -0.020625096828519908 0.0
0.015724312867352097 -0.044871962417829224 0.0
0.014117781969293485 -0.04637003908338955 0.0
0.009193692439770695 -0.025310082800851105 0.0
0.010324082248788008 -0.035101322264635346 0.0
0.012080850127364932 -0.04334656003504988 0.0
0.008415730679382089 -0.020876357271177738 0.0
0.009774220189343763 -0.031472867328457554 0.0
0.01139471451591088 -0.041239777006237106 0.0
0.017856610719240162 -0.03695682616100068 0.0
0.016590875487694886 -0.04257727765087759 0.0
0.01829524407498726 -0.033605891024488965 0.0
0.01961533026366873 -0.02075373966306393 0.0
0.00863447681336383 -0.010777657119616375 0.0
0.015055373699935872 -0.04599691093692114 0.0
0.019988414550812485 -0.0258360059769434 0.0
0.020929539657940307 -0.010416336849171273 0.0
0.013099219736092673 -0.04579174229514907 0.0
0.016984969243487497 -0.04279167951785817 0.0
0.01385115855885108 -0.010030721538500011 0.0
0.014008779665551079 -0.010326681689598254 0.0
0.014207972749436944 -0.04646475150424785 0.0
0.011449403266573142 -0.04350807728814201 0.0
0.009452987085074579 -0.03524154763007111 0.0
0.010173764378190245 -0.03839455974799758 0.0
0.019384314309629433 -0.03360490509703116 0.0
0.019850637899500184 -0.02987325765618522 0.0
0.017900451291335228 -0.04025616181245108 0.0
0.014285466914390256 -0.019214374456773427 0.0
0.021374135992420395 -0.01606904838041741 0.0
0.014219915446961096 -0.04535306065631458 0.0
0.014333325199851522 -0.0393542763487954 0.0
0.014276677793704739 -0.04418314486296986 0.0
0.01436115736886281 -0.028403541235058435 0.0
0.014322622576780644 -0.03647245163366117 0.0
0.01409593291537719 -0.02415502130024571 0.0
0.014373740785206464 -0.032615074372753274 0.0
0.014190389062556265 -0.028638135415977796 0.0
0.014212151649115682 -0.039517398932734926 0.0
0.014256815091426114 -0.041990771403527 0.0
0.014245047387268896 -0.045528667371723584 0.0
0.014911021305070628 -0.046161068335557165 0.0
0.012128687878984655 -0.04468438611295564 0.0
0.007195285140923194 -0.0211997507741965 0.0
0.00670127316441341 -0.0164231323248964 0.0
0.02187952423227831 -0.01651268436597493 0.0
0.013348821386436959 -0.04605284508299669 0.0
0.022163017151361274 -0.009168142131293933 0.0
0.006331546232469748 -0.009453742216530208 0.0
0.007728293300268794 -0.028714070847241216 0.0
0.010664602557563845 -0.04164279491173927 0.0
0.007401134845885037 -0.02472153685212955 0.0
0.009811680488535328 -0.03886257841409444 0.0
0.018579776398436897 -0.03944091588484073 0.0
0.016754689920771344 -0.04411223466020872 0.0
0.01936507060902375 -0.036639269246311675 0.0
0.021220488661294442 -0.024564526366378805 0.0
0.01480988178365498 -0.014923671910057949 0.0
0.01210390675344455 -0.04480991785976123 0.0
0.006292770409658608 -0.01501682481581321 0.0
0.008083178929104545 -0.03238216190862623 0.0
0.007413138281643573 -0.028455571641914427 0.0
0.013275919517850959 -0.04458033691888052 0.0
0.011205686995560512 -0.021679385179327965 0.0
0.010828838939607056 -0.01768569379805921 0.0
0.020973121980552192 -0.029797505656799363 0.0
0.013350355107352855 -0.014472811643826838 0.0
0.012153901643349712 -0.03760903315836073 0.0
0.012843724148901984 -0.043026648154977594 0.0
0.011769451137680614 -0.03431588745963109 0.0
0.01654343479089106 -0.03449796688026234 0.0
0.016718306721441364 -0.030835020724578152 0.0
0.01582329795141595 -0.04092979649613716 0.0
0.01576374372139537 -0.045522226970484074 0.0
0.017281093729017167 -0.008759196002759533 0.0
0.015990824651673195 -0.0452289206674045 0.0
0.017381577487477536 -0.008553202551475847 0.0
0.010508649290852502 -0.009121517409453194 0.0
0.01377021910491708 -0.04589494456795922 0.0
0.017637830157235013 -0.017447586897319435 0.0
0.014684106747214555 -0.04625280695941514 0.0
0.01540404649405142 -0.04310559209608815 0.0
0.016736721283268127 -0.0262543938343075 0.0
0.01412527429216916 -0.04609816337408377 0.0
0.014468811610006821 -0.04634649335227814 0.0
0.02197050072728976 -0.02286425144663543 0.0
0.006372082019968977 -0.007219502290929064 0.0
0.018257779961314197 -0.04139614906959149 0.0
0.013586835682138162 -0.04617118619545396 0.0
0.016960483601018983 -0.04413682150461152 0.0
0.014349751193605266 -0.04640490064425093 0.0
0.010961905284605465 -0.007616406756598113 0.0
0.011628633205402 -0.02751725281429745 0.0
0.011112099135566064 -0.02299146009717252 0.0
0.011967485598711067 -0.03335755035524331 0.0
0.012861732465404847 -0.04240322383632021 0.0
0.01163087355508513 -0.029525269523456247 0.0
0.012470141338468372 -0.04003484394116864 0.0
0.015821758769720275 -0.037781264603657744 0.0
0.016459300739017288 -0.021670515945615053 0.0
0.01594290791505583 -0.03463150846382911 0.0
0.01518452161584527 -0.043195057658694795 0.0
0.014666571810718395 -0.04593726417179023 0.0
0.013864682065749251 -0.04626004607340697 0.0
0.008647501882128157 -0.03638244956521976 0.0
0.007820877471005358 -0.032940131397291315 0.0
0.01016793561000298 -0.04220585926992376 0.0
0.022799113946033782 -0.01905098199453224 0.0
0.020610145182874226 -0.035578383036492335 0.0
0.01829314917193149 -0.04166369498101011 0.0
0.020897270118297093 -0.03216296906854733 0.0
0.014985314733456094 -0.04471665241767291 0.0
0.012741771542103906 -0.04562743121357625 0.0
0.018023861029139047 -0.017923717923249465 0.0
0.016677953477671092 -0.021430074201781852 0.0
0.011249136175871395 -0.043824136963554916 0.0
0.005728099282355305 -0.013150755547871233 0.0
0.02309453568065279 -0.012695560673861456 0.0
0.006289773195952162 -0.023945599479079125 0.0
0.014385100785608035 -0.04627686611485573 0.0
0.013944497434037844 -0.046250323354227615 0.0
0.014932788999107676 -0.045537930598747625 0.0
0.019155828932291955 -0.038461654747272485 0.0
0.02160674932662103 -0.027314540752966465 0.0
0.01394572191537149 -0.04629610779564653 0.0
0.006066384914950924 -0.021691459665407024 0.0
0.023522590620127706 -0.01268062243173243 0.0
0.023392189475842703 -0.008237346497055388 0.0
0.022501751996668377 -0.019194444289816318 0.0
0.008901531758529743 -0.03719020701292793 0.0
0.009627850245511245 -0.040010164729416174 0.0
0.010721883791173302 -0.013219441635364572 0.0
0.005486646543746384 -0.01783293878242799 0.0
0.018643675572646647 -0.023533358181526312 0.0
0.009369798499499697 -0.04045421107555959 0.0
0.01242274602370613 -0.03583824974600776 0.0
0.012931504641833489 -0.041850973266893535 0.0
0.012116222104942512 -0.03229557098119794 0.0
0.005076029930272452 -0.011827464684042487 0.0
0.02199959364674372 -0.02758037888500155 0.0
0.013218703749136992 -0.043746110634303205 0.0
0.016996173409794556 -0.0390422053491909 0.0
0.01588118076735893 -0.04387421476160636 0.0
0.017415434511144745 -0.03594917553043643 0.0
0.018505430153996975 -0.023632862723513434 0.0
0.01567721024544923 -0.04577624162059855 0.0
0.012002421162389757 -0.02455095846604273 0.0
0.01976627922325804 -0.037955246093622885 0.0
0.020536716085735353 -0.03490462996502463 0.0
0.017664647533383062 -0.04322934587190043 0.0
0.019846920152115942 -0.013364858843480746 0.0
0.011893447263779371 -0.013033473887490217 0.0
0.012397648885515044 -0.04535329090390118 0.0
0.015902199900256212 -0.04384501933057252 0.0
0.007579627221306194 -0.034358946468275677 0.0
0.006746416987244364 -0.030661005296753124 0.0
0.015444828266158154 -0.04535127055560632 0.0
0.011590902398361554 -0.020770844328328292 0.0
0.01932892901430938 -0.02891698642301571 0.0
0.016384123737957255 -0.011584648723225633 0.0
0.016592115330294144 -0.044908203449484735 0.0
0.020256505223795053 -0.006807880853469188 0.0
0.01052012235890664 -0.042680060885081424 0.0
0.006252863924404342 -0.026602151483653816 0.0
0.01511309567786446 -0.045917408658908906 0.0
0.011164974368379894 -0.044028608732313554 0.0
0.016312405473886158 -0.04209606577498751 0.0
0.021519326074134027 -0.03218734644011332 0.0
0.014213395218887745 -0.04645562563112015 0.0
0.014831098089057351 -0.007592317037995529 0.0
0.013261762713758828 -0.04554991471371986 0.0
0.013930517009064293 -0.044909560731899285 0.0
0.013235735696618636 -0.026426082986833688 0.0
0.013520288428398282 -0.0379114801972255 0.0
0.013437852067688133 -0.030516313935131278 0.0
0.01368279673695962 -0.04065526159718578 0.0
0.005347341141054524 -0.018624134580842583 0.0
0.015029640427288911 -0.007528685399460836 0.0
0.017859696969608804 -0.04305183546620162 0.0
0.014235651060622525 -0.04645330407739477 0.0
0.013815162292880498 -0.04628148652284796 0.0
0.011339975901465656 -0.01010988244619456 0.0
0.023088930280064365 -0.021717445080483597 0.0
0.017995937917223495 -0.02883547747078985 0.0
0.01810842458229652 -0.03250942698318362 0.0
0.016762469643270644 -0.039606985455812246 0.0
0.011180524456896462 -0.0362152096602943 0.0
0.011687038468835838 -0.039239641643536556 0.0
0.012722705093752892 -0.04410933907522732 0.0
0.006561566789176868 -0.030518024547512203 0.0
0.005880650451196276 -0.02642709678413579 0.0
0.01185445858006878 -0.0424562148272435 0.0
0.010195548944810257 -0.033445736568935625 0.0
0.010756227259456751 -0.0368430339493725 0.0
0.016513832977653443 -0.028500265545047733 0.0
0.01588869706038069 -0.0122835469296291 0.0
0.008411245874800504 -0.007826717390162354 0.0
0.01960380518727778 -0.006687140207255714 0.0
0.014967091621428749 -0.04062583632706682 0.0
0.015396974078973058 -0.030683478313539948 0.0
0.014624535496582684 -0.04483148936004391 0.0
0.015084943251938043 -0.037860106622978035 0.0
0.015399092817350607 -0.026238927665726126 0.0
0.022221795316102924 -0.025318867225025948 0.0
0.008642079475894524 -0.005808526830704067 0.0
0.018098395287196107 -0.035374686258293785 0.0
0.016865949236455933 -0.0415155291063841 0.0
0.01849084934171913 -0.03182026708686094 0.0
0.013471875508385217 -0.034440734426363306 0.0
0.013692070905028294 -0.04089768547799426 0.0
0.01329165356169533 -0.030703454163805075 0.0
0.01556540768534293 -0.045827262250173 0.0
0.01380209158393513 -0.043112420450002145 0.0
0.010135807334260153 -0.03215516944950671 0.0
0.00965649527799302 -0.028193890596340077 0.0
0.01680749275828371 -0.044682690548210786 0.0
0.014641331107002317 -0.04625924718735927 0.0
0.012056697781771868 -0.01941253316408534 0.0
0.01340670867037114 -0.021433495194762557 0.0
0.013042693239724882 -0.016773997104322227 0.0
0.01259844276367396 -0.04447456459451299 0.0
0.013459236775048466 -0.026201035068642478 0.0
0.007511832214720295 -0.03444661498720451 0.0
0.008456615861633566 -0.037690554543512333 0.0
0.014309461648573935 -0.046292462173363004 0.0
0.02149183329535872 -0.03031282883604819 0.0
0.0189026972346149 -0.04049857738529966 0.0
0.011075404997447608 -0.0404538407812674 0.0
0.010435122874758923 -0.037625632812048615 0.0
0.009215316787791045 -0.022150471087448616 0.0
0.023959731322215586 -0.006114242026738901 0.0
0.004888453990181167 -0.00806653341899112 0.0
0.015179274433402185 -0.01638238286323062 0.0
0.014820355535661921 -0.045512251823273 0.0
0.013971271735380555 -0.04477734559498822 0.0
0.013661148835948295 -0.04528826204278416 0.0
0.012521144181456712 -0.007770002094683006 0.0
0.012841228360647508 -0.04580871174324903 0.0
0.023647767939258255 -0.016427163400364705 0.0
0.013498729489133185 -0.021609894197939378 0.0
0.018918289764967743 -0.011182559418777674 0.0
0.012998692813957676 -0.04510948542442292 0.0
0.013813399997668755 -0.03783395608721575 0.0
0.013897378686498487 -0.04325708491989965 0.0
0.013636723608261438 -0.03471324096976381 0.0
0.009324963180559906 -0.01975701486736428 0.0
0.009512939583180299 -0.027547364248211914 0.0
0.00910339591795037 -0.02319132391183881 0.0
0.011849146204796077 -0.042377508471780255 0.0
0.011182352737677153 -0.03996821514803889 0.0
0.01447106611937714 -0.04586374937236279 0.0
0.011437179176503595 -0.04455835920278841 0.0
0.01984775047455749 -0.018457032731020746 0.0
0.01985362885036036 -0.02638413866407165 0.0
0.018181476803806662 -0.037897124319044836 0.0
0.01378919688763926 -0.045522735787666045 0.0
0.015966767606954 -0.044822582579611005 0.0
0.004778492479207837 -0.021645346783426108 0.0
0.008676921827098795 -0.01818801995239121 0.0
0.009104260777022626 -0.01567367974506344 0.0
0.016491500520791815 -0.02380387424635194 0.0
0.015732461268312552 -0.03912310277219221 0.0
0.01597084040931377 -0.03615627772533683 0.0
0.015116541290282854 -0.04399500282157346 0.0
0.017580273162424553 -0.04078117623925141 0.0
0.013000710052418804 -0.0392798325440465 0.0
0.013495491087727449 -0.04412782186707518 0.0
0.012724943795953608 -0.036302845463464184 0.0
0.023529444862328563 -0.010388589883562189 0.0
0.014153969493483765 -0.04601857211094143 0.0
0.01659812527454823 -0.036271482213497255 0.0
0.01672030683678276 -0.03311596415968641 0.0
0.015705201296735628 -0.04232360295044873 0.0
0.015326094320276288 -0.0418796904721563 0.0
0.010427959271097454 -0.043036768237831924 0.0
0.014486358905791436 -0.04634865465762967 0.0
0.01556669678808505 -0.0393538685569222 0.0
0.01618466736252993 -0.028419264098509277 0.0
0.016116990732638236 -0.019279745346917176 0.0
0.019017506169115652 -0.04027849414997555 0.0
0.008811953069693916 -0.010715889383192385 0.0
0.019228575832875877 -0.010129278408264594 0.0
0.021083907961459303 -0.034131372476743214 0.0
0.007945121229224859 -0.017405750237147383 0.0
0.013163693370277656 -0.04580779272851898 0.0
0.0194698263395049 -0.015340343228965221 0.0
0.01909072590515375 -0.015466273843838217 0.0