<VTKFile type="UnstructuredGrid"  version="0.1">
<UnstructuredGrid>
<Piece NumberOfPoints="713" NumberOfCells="1304">
<Points>
<DataArray type="Float64" NumberOfComponents="3" format="ascii">
0.0 0.0 0.0
10.0 0.0 0.0
10.0 2.0 0.0
5.0 2.0 0.0
0.0 2.0 0.0
0.199999999999856 0.0 0.0
0.3999999999996677 0.0 0.0
0.5999999999994683 0.0 0.0
0.7999999999993286 0.0 0.0
0.9999999999991888 0.0 0.0
1.199999999999033 0.0 0.0
1.399999999998576 0.0 0.0
1.599999999997992 0.0 0.0
1.799999999997408 0.0 0.0
1.999999999996825 0.0 0.0
2.199999999996241 0.0 0.0
2.399999999995657 0.0 0.0
2.599999999995073 0.0 0.0
2.79999999999449 0.0 0.0
2.999999999993906 0.0 0.0
3.199999999993322 0.0 0.0
3.399999999992738 0.0 0.0
3.599999999992154 0.0 0.0
3.799999999991571 0.0 0.0
3.999999999991022 0.0 0.0
4.199999999991187 0.0 0.0
4.399999999991491 0.0 0.0
4.599999999991795 0.0 0.0
4.799999999992099 0.0 0.0
4.999999999992403 0.0 0.0
5.199999999992706 0.0 0.0
5.39999999999301 0.0 0.0
5.599999999993313 0.0 0.0
5.799999999993618 0.0 0.0
5.999999999993922 0.0 0.0
6.199999999994227 0.0 0.0
6.39999999999453 0.0 0.0
6.599999999994833 0.0 0.0
6.799999999995138 0.0 0.0
6.999999999995442 0.0 0.0
7.199999999995747 0.0 0.0
7.39999999999605 0.0 0.0
7.599999999996353 0.0 0.0
7.799999999996658 0.0 0.0
7.999999999996962 0.0 0.0
8.199999999997265 0.0 0.0
8.399999999997569 0.0 0.0
8.599999999997873 0.0 0.0
8.799999999998176 0.0 0.0
8.99999999999848 0.0 0.0
9.199999999998786 0.0 0.0
9.399999999999089 0.0 0.0
9.599999999999392 0.0 0.0
9.799999999999697 0.0 0.0
10.0 0.1999999999996293 0.0
10.0 0.3999999999991157 0.0
10.0 0.5999999999985328 0.0
10.0 0.7999999999979498 0.0
10.0 0.9999999999973885 0.0
10.0 1.199999999997894 0.0
10.0 1.39999999999842 0.0
10.0 1.599999999998947 0.0
10.0 1.799999999999474 0.0
9.799999999999999 2.0 0.0
9.6 2.0 0.0
9.399999999999999 2.0 0.0
9.2 2.0 0.0
8.999999999999998 2.0 0.0
8.799999999999999 2.0 0.0
8.599999999999998 2.0 0.0
8.399999999999999 2.0 0.0
8.2 2.0 0.0
7.999999999999998 2.0 0.0
7.799999999999999 2.0 0.0
7.599999999999999 2.0 0.0
7.399999999999999 2.0 0.0
7.199999999999999 2.0 0.0
7.0 2.0 0.0
6.799999999999999 2.0 0.0
6.6 2.0 0.0
6.399999999999999 2.0 0.0
6.199999999999999 2.0 0.0
5.999999999999999 2.0 0.0
5.8 2.0 0.0
5.6 2.0 0.0
5.399999999999999 2.0 0.0
5.199999999999999 2.0 0.0
4.8 2.0 0.0
4.6 2.0 0.0
4.399999999999999 2.0 0.0
4.199999999999998 2.0 0.0
3.999999999999999 2.0 0.0
3.799999999999999 2.0 0.0
3.599999999999999 2.0 0.0
3.399999999999999 2.0 0.0
3.199999999999998 2.0 0.0
2.999999999999999 2.0 0.0
2.799999999999999 2.0 0.0
2.599999999999999 2.0 0.0
2.399999999999999 2.0 0.0
2.199999999999999 2.0 0.0
2.0 2.0 0.0
1.799999999999999 2.0 0.0
1.599999999999999 2.0 0.0
1.399999999999999 2.0 0.0
1.199999999999999 2.0 0.0
0.9999999999999991 2.0 0.0
0.7999999999999998 2.0 0.0
0.5999999999999996 2.0 0.0
0.3999999999999995 2.0 0.0
0.1999999999999993 2.0 0.0
0.0 1.799999999999167 0.0
0.0 1.6 0.0
0.0 1.400000000001387 0.0
0.0 1.200000000002774 0.0
0.0 1.000000000004117 0.0
0.0 0.8000000000033287 0.0
0.0 0.6000000000024965 0.0
0.0 0.4000000000016644 0.0
0.0 0.200000000000832 0.0
1.499207686858938 0.9671416246672391 0.0
2.690335006295381 0.9619521672166851 0.0
3.892537609238439 1.007271393615351 0.0
8.916602958236062 0.9848120741100651 0.0
7.714518201951718 1.024234589865042 0.0
6.514518201951581 1.024234589865268 0.0
5.299999999999998 1.000000000000349 0.0
0.7620577975594133 1.201991596673393 0.0
4.61755859746166 1.240410629378135 0.0
2.099999999996533 0.6749999999988996 0.0
3.289480163184942 0.6802242156869155 0.0
8.299999999999976 1.325000000000064 0.0
7.110519836808121 1.319775784312006 0.0
5.893184537067197 1.292851873188582 0.0
3.268568008578649 1.341967835735878 0.0
2.118368267083699 1.321829331075689 0.0
5.930896443153832 0.6493414313150682 0.0
7.106926174231782 0.6329785805444448 0.0
8.306926174233002 0.6329785805444098 0.0
4.427960725065653 0.6389803625370323 0.0
0.9828791719046732 0.6520555711814596 0.0
9.383333333333349 0.6166666666667164 0.0
9.383333333333326 1.383333333333367 0.0
4.974443803660211 0.5526668589022862 0.0
1.248084267804327 1.464555585366204 0.0
4.139486343919472 1.468449088519687 0.0
5.077806736162063 1.478342020848787 0.0
1.629462398503482 0.5098631373669138 0.0
2.579462070540726 0.5133714280880515 0.0
3.770778974032556 0.5099482598296803 0.0
8.764748922637567 1.526880805960684 0.0
7.820537929455645 1.486628571911716 0.0
6.632254923791462 1.492045881343967 0.0
2.796478414430566 1.477149214423874 0.0
6.403521585563812 0.5228507855762514 0.0
7.603521585564883 0.5228507855756581 0.0
8.783559188644787 0.5066440811355862 0.0
0.5060338924245764 0.5082251307884346 0.0
5.451633334958382 0.4799315318847731 0.0
1.683269995544083 1.547372422998862 0.0
0.448590368789599 1.551409631210402 0.0
5.545526974704655 1.582008455135239 0.0
3.666056976948354 1.56999765613834 0.0
0.4385739326402744 0.9352922270094057 0.0
9.58170539854767 0.9922137522194456 0.0
4.93200119575972 0.9247090920592975 0.0
6.20679636316332 1.642443126922768 0.0
7.418963044745086 1.587405313446662 0.0
2.98103695524982 0.412594686552066 0.0
2.420975602092416 1.592770352831584 0.0
7.97902439790374 0.4072296471687943 0.0
6.779024397902082 0.4072296471687297 0.0
1.130444757308209 0.9859238872709168 0.0
0.8901814758011342 1.60566856081121 0.0
4.263670373274499 0.9915754392410991 0.0
3.096698167273431 1.009056907826855 0.0
6.088506433998166 0.9857489435828969 0.0
1.902225037409936 1.003483800311746 0.0
7.288506433998439 0.9857489435828686 0.0
8.498964973312972 1.005823551167602 0.0
2.307571737417198 1.008136792450924 0.0
8.100397971125554 1.000138280273345 0.0
6.900397971125225 1.000138280273792 0.0
3.499307350770321 0.9996496628144824 0.0
5.703656022566558 0.9885479657552226 0.0
4.719420624357892 1.622286409566126 0.0
4.099803549896894 0.3600308081356619 0.0
1.286100671532495 0.3637431910670685 0.0
9.120549139677793 1.655065205594329 0.0
9.11726214008418 0.3400668903113251 0.0
4.642568097328033 0.3514924793220939 0.0
9.630437629189052 0.3309104953729904 0.0
9.674493769554315 1.668196579944218 0.0
1.936458797611609 0.3337070483410596 0.0
3.461817573918652 0.3447876019040473 0.0
8.440152788772068 1.649667667046397 0.0
6.973083089482548 1.643748677366674 0.0
3.126874515006838 1.659115470008545 0.0
6.070607878384977 0.3410183041038941 0.0
7.255014454789089 0.32792256737713 0.0
8.462493615948901 0.3368393217476116 0.0
9.236261261261264 0.9276047786917867 0.0
5.885444386845415 1.667751020273455 0.0
0.8062340689595878 0.3261579034781319 0.0
2.29463843780282 0.308358158429197 0.0
8.10536156219338 1.691641841570632 0.0
4.041916759198581 0.7211683801597477 0.0
1.324377365289917 0.710525897087282 0.0
9.023167917315867 1.292262965009952 0.0
2.044244009166302 1.693807225416931 0.0
0.7675765545556328 0.8969765944392112 0.0
2.86965991063896 0.7069213925303978 0.0
6.330340089355722 1.293078607468788 0.0
7.530340089355831 1.29307860746885 0.0
2.509347777214458 1.27231292939881 0.0
7.890652222779963 0.7276870706009825 0.0
6.690652222780154 0.7276870706013264 0.0
4.380959112578968 1.65866292149053 0.0
0.3278422400819535 1.233362752678148 0.0
5.754468991464942 0.3469215055361071 0.0
9.69195804401614 0.7000195364707393 0.0
9.691250997975434 1.303243780084337 0.0
5.54324561063747 1.237401556904767 0.0
9.044596057577811 0.6843248705785732 0.0
5.208929198448351 0.3519433027337513 0.0
3.708880196230617 1.249762029554333 0.0
1.713349558540635 1.234899745098077 0.0
4.586522821995393 0.9261740906803194 0.0
5.241145838821565 0.7007005766013242 0.0
1.434457446926135 1.701926055218157 0.0
0.2821921707428039 0.3393165318407161 0.0
3.42846431357046 1.714274134409306 0.0
5.26283485467567 1.710141275531951 0.0
3.966530105129177 1.718376080180638 0.0
4.891301048299285 1.259923533724591 0.0
0.2787500712946937 0.6906723798523376 0.0
1.822166578929051 0.7301892210727335 0.0
8.593276160688786 1.287322908694633 0.0
2.386017956680413 0.7288816957021155 0.0
3.576911792171353 0.7225526638483954 0.0
8.013982043315597 1.271118304297217 0.0
6.82303669320588 1.277631295759485 0.0
2.891837633696712 1.215141906356511 0.0
8.708162366297856 0.7848580936429009 0.0
7.496736072543097 0.7897651325976158 0.0
6.296736072542775 0.7897651325982009 0.0
5.523181420933933 0.7588744249744506 0.0
4.725538117155759 0.6529070682798582 0.0
2.736307197014292 0.273961667653487 0.0
7.663692802980817 1.726038332346062 0.0
6.446842959287713 1.783714797320288 0.0
1.126188383272983 1.743715177525389 0.0
2.64757240694847 1.787239829472812 0.0
6.546646507559373 0.2589894635657943 0.0
7.746646507561152 0.2589894635657218 0.0
4.079302268890254 1.221431431691139 0.0
4.433746883463333 0.2983726043497702 0.0
1.032697650548726 1.318076986199429 0.0
1.309492735411376 1.208980965369829 0.0
3.896105387998365 0.2579746081881307 0.0
9.378751775005455 1.725996478164223 0.0
9.3965279828929 0.2649862374471925 0.0
1.515757555362918 0.2603060454608533 0.0
4.959097093232828 1.726144293543605 0.0
4.912501341257775 0.2529154558175828 0.0
4.342421824442713 1.285376618065631 0.0
7.023506283123107 0.293611963231815 0.0
8.215829626877609 0.2682061590942965 0.0
5.28145265730745 1.291130016052329 0.0
8.693992162747364 1.744100892812201 0.0
0.6256567126095668 1.775064851453201 0.0
0.2724967459749605 1.756941612685287 0.0
8.90781713264278 0.2741674349222226 0.0
7.184202236567151 1.709454269177068 0.0
3.212962614055919 0.2641656831057426 0.0
0.6761590188374282 0.6746441670621973 0.0
1.020489328989316 0.2487299689497893 0.0
1.485017749467193 1.402133856149482 0.0
6.734223224917944 1.790518105434539 0.0
2.657549589911705 0.7636227781082678 0.0
6.542590471647475 1.237213715285722 0.0
7.742745187066703 1.235538225115726 0.0
0.5794341726414672 0.2480285055479751 0.0
1.842901067642841 1.760146518280044 0.0
3.84389577648662 0.7524680119172447 0.0
3.061589173628368 1.407936939342627 0.0
6.144447294584154 0.5911674363009913 0.0
7.344447294585433 0.5911674362995804 0.0
8.544447294586682 0.5911674362982269 0.0
5.491507940982565 0.1734458797927824 0.0
[...]
<PointData Vectors="fields">
<DataArray type="Float64" Name="U" NumberOfComponents="3" format="ascii">
0.0 0.0 0.0
0.03728986692762133 0.0 0.0
0.00293758521309737 -0.006623011551136291 0.0
0.018579145289551156 -0.060003639079492216 0.0
0.034262186661212925 -0.0062867785415875645 0.0
0.0003776767041733316 -0.00702154769952926 0.0
0.001126282623641827 -0.01158953312776144 0.0
0.0018025199080597921 -0.01564759400391815 0.0
0.0023736150747388674 -0.019230490324651694 0.0
0.002878580129991682 -0.022654549132996166 0.0
0.003369573118525121 -0.025946796502368825 0.0
0.003866815280807322 -0.029117304278557396 0.0
0.004415858078316088 -0.032181742139195876 0.0
0.004985384395013953 -0.03514143938124846 0.0
0.005603583381623584 -0.037964072713617514 0.0
0.00625568001763292 -0.04064800118571794 0.0
0.006968892412204896 -0.04319534807811606 0.0
0.007696225021901733 -0.045584004855183734 0.0
0.008496584828987679 -0.04781374020574362 0.0
0.009291727887165181 -0.04987532264892379 0.0
0.010146738372555484 -0.051760068878983 0.0
0.01100008173195479 -0.05345247842181587 0.0
0.011894028886346537 -0.05496663873620306 0.0
0.012793625833550527 -0.05625315404484611 0.0
0.01370265320154536 -0.05740666512404677 0.0
0.014650990347850359 -0.05833572212652961 0.0
0.015591517498352999 -0.05905719019280215 0.0
0.016562336084745 -0.05958405296268948 0.0
0.01751901382770748 -0.05989392452862353 0.0
0.018516689805058967 -0.060007060966047694 0.0
0.019488953111291767 -0.05991237432856473 0.0
0.020463833812627036 -0.05960446835785349 0.0
0.021437845073158636 -0.059092810170012645 0.0
0.02240249217282452 -0.0583700636406664 0.0
0.023342371915579314 -0.057451782674848455 0.0
0.024301205334273185 -0.05634528104175293 0.0
0.02520567467599977 -0.05498703155165485 0.0
0.026110277305419684 -0.05350045061341191 0.0
0.026969947455133238 -0.05181865487140192 0.0
0.027823707290963118 -0.049925757118336286 0.0
0.028624795605061572 -0.04786235733106115 0.0
0.02939272958318485 -0.04563887959582093 0.0
0.03010097816319729 -0.043219077651923204 0.0
0.030790534027203203 -0.04070467945933771 0.0
0.03142331934772124 -0.03804057159753188 0.0
0.0320291689813354 -0.03523227612962947 0.0
0.032583930540771716 -0.03229177211518113 0.0
0.033112979028344626 -0.029250392013374746 0.0
0.03359450015158875 -0.026097886265432038 0.0
0.03408463778246385 -0.02282965866988236 0.0
0.034563654264605746 -0.019449778009960568 0.0
0.03509484677946232 -0.015888511942365183 0.0
0.03568302676187785 -0.012037707168446833 0.0
0.03659253757790733 -0.00748278900424349 0.0
0.031573354326360464 -0.0026093904856699934 0.0
0.02782604278284205 -0.004041873833418854 0.0
0.024411516849547236 -0.004953175903326314 0.0
0.021266501437435307 -0.005642510556756397 0.0
0.018211999546922552 -0.006076322937369285 0.0
0.015211323630146045 -0.006359242009675732 0.0
0.012213431301122981 -0.006530348216564919 0.0
0.009172486097184377 -0.006607000078830926 0.0
0.006079226205322859 -0.006622778638048925 0.0
0.0029353796309029814 -0.009775790733629192 0.0
0.002943826977489166 -0.012967904816494749 0.0
0.003000858715485523 -0.0162076531795045 0.0
0.0031322768133036825 -0.019480088758907617 0.0
0.0033501128453685483 -0.022740743105254594 0.0
0.003646879279460967 -0.025948403102397426 0.0
0.004026152737191932 -0.029115779769682236 0.0
0.004472399374477669 -0.03217567014706558 0.0
0.004987510540908925 -0.035126225664100494 0.0
0.0055777728017654595 -0.0379631460541322 0.0
0.0061997378821308305 -0.04065638863445533 0.0
0.0069042887337439265 -0.043210889518682946 0.0
0.007623117507120596 -0.04560988209110749 0.0
0.008415576215858393 -0.04784478959270658 0.0
0.009236839936232233 -0.049915116285529366 0.0
0.010094497991595222 -0.0518048036562003 0.0
0.010961633069875215 -0.05346699606211683 0.0
0.011875812280254704 -0.05502048959980102 0.0
0.012807783223241513 -0.056329068980815064 0.0
0.013730432807094815 -0.057447311833515216 0.0
0.014688990696610827 -0.058376190292052946 0.0
0.015672945509844577 -0.05909107255891706 0.0
0.01661909445854665 -0.05960014882174474 0.0
0.01760655250506825 -0.059907408021362546 0.0
0.01957432659599066 -0.05987631717624858 0.0
0.020526163699389904 -0.059563448387850326 0.0
0.021469929542565627 -0.05904861947522997 0.0
0.022434701252538432 -0.05834150445343692 0.0
0.023388551250765357 -0.05740483452636308 0.0
0.024336778775415457 -0.05627330743557557 0.0
0.02522254684233783 -0.05495733124708816 0.0
0.02611905734205449 -0.053445467258287103 0.0
0.026987929329231972 -0.05175496530920138 0.0
0.027847541420256076 -0.049873811393895635 0.0
0.028653799615011834 -0.04777301376126386 0.0
0.029452258825772577 -0.045570119757609176 0.0
0.030192488613130335 -0.04316210346747519 0.0
0.03088531755770565 -0.04059930172794092 0.0
0.031550789199898836 -0.03788888020087955 0.0
0.03215038670293434 -0.03503978674182209 0.0
0.032673339890504124 -0.032072720458343654 0.0
0.033152638301344545 -0.02898098852230293 0.0
0.033540615488231035 -0.025800693514364075 0.0
0.033850219700178805 -0.02254205809147641 0.0
0.034064485271984316 -0.019254006838462286 0.0
0.034191358334336154 -0.01595110521469695 0.0
0.034253044635347916 -0.012684932473549178 0.0
0.03426713168074283 -0.009461284233265446 0.0
0.031095218852163996 -0.006288555863691909 0.0
0.027977342913736897 -0.006273595117856612 0.0
0.02491931551452495 -0.006201387412531059 0.0
0.021894888475694145 -0.006033765599446623 0.0
0.01888101667402828 -0.005724103553468024 0.0
0.015808658102257248 -0.0052862256046631445 0.0
0.012639390288016982 -0.004590351032093603 0.0
0.009220925849134101 -0.003635114608640774 0.0
0.005183490629478838 -0.0020497668888485804 0.0
0.0181987436656229 -0.030813941369063177 0.0
0.01818589305671349 -0.04697283803260432 0.0
0.018586112941932197 -0.057259519845147405 0.0
0.018551307636734304 -0.02426874880376686 0.0
0.01821757188067919 -0.042110720106678226 0.0
0.01836283394911869 -0.054605842473844854 0.0
0.018540126021063485 -0.06024010214338118 0.0
0.02186084501943463 -0.018649935952424784 0.0
0.01899100875351678 -0.060039235985116145 0.0
0.014593546492744226 -0.03958562324062592 0.0
0.01606360600810096 -0.05290474944495743 0.0
0.01412091967910663 -0.033905088921646113 0.0
0.015489919733556914 -0.049136780654406305 0.0
0.01731905722783228 -0.058391281675571345 0.0
0.02126920953594473 -0.052723047202512266 0.0
0.022516447192910675 -0.039797235601615466 0.0
0.020068552352479577 -0.058202187640259875 0.0
0.02199861079434054 -0.049179590824914354 0.0
0.023399515584156313 -0.03387933541004528 0.0
0.01756007810757571 -0.05954256269488528 0.0
0.01353427607718908 -0.022443355102153253 0.0
0.02408674803278595 -0.016265280919331764 0.0
0.01251721862073705 -0.016466304493265197 0.0
0.01846583553011826 -0.06036551180856933 0.0
0.025370374692926558 -0.02671889773526563 0.0
0.020472214870647557 -0.05841587927441081 0.0
0.018376880017782402 -0.06033501909155238 0.0
0.011885477197698308 -0.03280438739482812 0.0
0.013369071829206556 -0.04561638055310345 0.0
0.015727211067708795 -0.056423485266033385 0.0
0.010836869373932037 -0.02664853900537701 0.0
0.012628342625770764 -0.040625772073510875 0.0
0.014820441737270514 -0.05355728289193812 0.0
0.02326778985231269 -0.04805361273010145 0.0
0.02165959266688548 -0.055320657414033136 0.0
0.02391659591021083 -0.04345183163442363 0.0
0.02562985340103564 -0.026484563964644617 0.0
0.011176349527196134 -0.013923196078829653 0.0
0.01964523760622874 -0.05983075888192028 0.0
0.026014277420552016 -0.03349972562130302 0.0
0.027199142877156725 -0.013448074324826358 0.0
0.017052771442280092 -0.059559419135534725 0.0
0.022123176593309323 -0.055704673422192305 0.0
0.01796709069109525 -0.0129518421457001 0.0
0.018262955588486236 -0.012934919032590187 0.0
0.0185151220835372 -0.06046144205359086 0.0
0.01490163175901853 -0.05654897139363463 0.0
0.012218847093617728 -0.0456207043500189 0.0
0.013197115507124458 -0.04994120283744648 0.0
0.025267752230158178 -0.04365384933366197 0.0
0.025970322681722405 -0.03850786596105126 0.0
0.023392282101982395 -0.052258832121918924 0.0
0.01853877865202757 -0.024879089862569075 0.0
0.027785942967116586 -0.020798024594295486 0.0
0.01851969560200657 -0.05903611010721688 0.0
0.018645892654598224 -0.05119995906666111 0.0
0.018611806309852288 -0.05743237209288377 0.0
0.018652415095407084 -0.03683722657073721 0.0
0.018660350809425318 -0.04724971738850813 0.0
0.018345361745681556 -0.030951030992117302 0.0
0.01867874739704091 -0.042349644480721045 0.0
0.01847207323623142 -0.03687080471218568 0.0
0.018520860852742793 -0.05128024881864098 0.0
0.01855475276474478 -0.05465275131236556 0.0
0.018568884553736082 -0.05920470070265317 0.0
0.01940171610838542 -0.060081757258783036 0.0
0.015802485932159008 -0.05816879827234451 0.0
0.009290850250740055 -0.027456709028879454 0.0
0.008599335123862633 -0.020830537579834794 0.0
0.02857273126626985 -0.020953430035700008 0.0
0.017412707835966563 -0.0599414078113589 0.0
0.028924647185775115 -0.011496469224804743 0.0
0.008139541832419174 -0.011753913363884884 0.0
0.009957488189877128 -0.03724795249173761 0.0
0.013867749785933546 -0.05419830582439186 0.0
0.009487194353056365 -0.03170411261097139 0.0
0.012718025854144652 -0.050417061437048105 0.0
0.024217356849517434 -0.05131678065570995 0.0
0.02187720554608164 -0.057345200675672364 0.0
0.025334938272376498 -0.04747344692623962 0.0
0.027760432419782315 -0.031494569683165816 0.0
0.019307773383727855 -0.01888525520664725 0.0
0.015756318543849124 -0.05826440131241714 0.0
0.008131336191017927 -0.019424211477416197 0.0
0.010419989034354175 -0.04204968551591951 0.0
0.00949959890724316 -0.036633595660555726 0.0
0.017290355711602073 -0.058031342854761685 0.0
0.014520355035920196 -0.028079188865934582 0.0
0.01403652512160712 -0.022473438513815558 0.0
0.027329042975603086 -0.038671119488523656 0.0
0.01731518674589852 -0.01871992896653027 0.0
0.015782844688864265 -0.048909715443108674 0.0
0.016730641032358065 -0.05591096145095307 0.0
0.0152776728218768 -0.0443926298305146 0.0
0.021537327408846535 -0.04482246948525743 0.0
0.021824239420791314 -0.03977920908484419 0.0
0.02064759149509501 -0.05314642229507985 0.0
0.020516237384057067 -0.05926145686646419 0.0
0.02243997495199373 -0.011296085798113543 0.0
0.02087569675914447 -0.05881719116172022 0.0
0.02270525506154229 -0.010679672896755492 0.0
0.01363950754261805 -0.01133964532236843 0.0
0.017940807131568495 -0.05968991301429791 0.0
0.02302589250385518 -0.02216572541769433 0.0
0.01916641721734244 -0.06017807426918 0.0
0.020055597896119295 -0.05611122739686178 0.0
0.021760274347542775 -0.034037510034027996 0.0
0.01840276514741718 -0.05999806157598488 0.0
0.018867358345425626 -0.06029387258169265 0.0
0.028586589140332068 -0.02963503045690065 0.0
0.008238019885244443 -0.009312076876666188 0.0
0.02379276321468733 -0.05388085567293619 0.0
0.017676002103992994 -0.060071094489228136 0.0
0.022086351490445202 -0.0574627403417573 0.0
0.01868671119759698 -0.060386765293666364 0.0
0.014204532207390744 -0.009820809128534051 0.0
0.01506879549508967 -0.03568036471031538 0.0
0.014395729075413454 -0.029422455771443708 0.0
0.015518588267752409 -0.043325177389334994 0.0
0.016737730209707185 -0.05519101639015164 0.0
0.015082290668942334 -0.03804575822166024 0.0
0.016228108266160505 -0.05196490574180186 0.0
0.02059486686366359 -0.04913548712331308 0.0
0.02147212670566654 -0.027684599684923927 0.0
0.020801734980903874 -0.04481008724499441 0.0
0.01980557568303614 -0.05613244183287936 0.0
0.019125209927327934 -0.059746675112058605 0.0
0.018075025482813176 -0.06020501434476547 0.0
0.011180497614405163 -0.04730009804417136 0.0
0.010048270762051826 -0.04257146917950934 0.0
0.013212897618833676 -0.05483516471633365 0.0
0.02965142402239811 -0.024676294967932333 0.0
0.02688206226754697 -0.04624784088481227 0.0
0.023908322488303296 -0.0541192879706555 0.0
0.027360675384899415 -0.04154284910505392 0.0
0.019511553566251078 -0.05821113867337992 0.0
0.016615585082121548 -0.05939351847794361 0.0
0.02341730980184513 -0.023205984434269113 0.0
0.021667575375867602 -0.02776124612512045 0.0
0.014648920880986243 -0.05704901736310889 0.0
0.007338300621319854 -0.016570291838609114 0.0
0.030126481519914136 -0.01601727808089361 0.0
0.008098182741290406 -0.03103089843521465 0.0
0.018711417738488025 -0.06022408651768342 0.0
0.018201973598436255 -0.060190065537221116 0.0
0.019442719746152973 -0.05927763450593397 0.0
0.02505608569985699 -0.049886927914431785 0.0
0.028283377691617952 -0.03512540862879804 0.0
0.018164008134378917 -0.06022597616968939 0.0
0.007737528511840817 -0.027721625427836218 0.0
0.030580956248777942 -0.01639309298478889 0.0
0.03040807420092875 -0.010612634657812172 0.0
0.029404436073423555 -0.024448710048371493 0.0
0.01150273814341511 -0.04820341548997842 0.0
0.012498417891086655 -0.052060803632863854 0.0
0.01389115756704993 -0.017091732733619573 0.0
0.0070775925188064585 -0.023082590620632698 0.0
0.02424427458980598 -0.030499507332446094 0.0
0.01214889737938906 -0.05252252225895 0.0
0.016125706691061656 -0.04658343736116612 0.0
0.016842187347551826 -0.054361698090823 0.0
0.015730444267638463 -0.041714850922029645 0.0
0.006554805149511726 -0.015285327141988677 0.0
0.028655005622318156 -0.03577911616437838 0.0
0.017210396993246113 -0.05694413664084122 0.0
0.02213822675877803 -0.050791467069659396 0.0
0.020723592778655302 -0.057028225622048824 0.0
0.02275280886508381 -0.04655683130091754 0.0
0.02417668295648088 -0.030264692537747124 0.0
0.02047568806249898 -0.05954676622563359 0.0
0.01555964678488729 -0.031814571627206925 0.0
0.025776160575220548 -0.04936806158824755 0.0
0.02688664156895778 -0.04517630508603132 0.0
0.023076993215411526 -0.05618423450267058 0.0
0.025789239748206363 -0.01728186287333275 0.0
0.015461222964364064 -0.016427511249449696 0.0
0.016134023471150505 -0.05898338970917284 0.0
0.02070644474436264 -0.05707785804060009 0.0
0.009766785134990144 -0.044643861325884694 0.0
0.008619971050092053 -0.039552823198955527 0.0
0.020152217265850085 -0.05897476370977724 0.0
0.015033978808297118 -0.026506161143575922 0.0
0.02516997099346035 -0.0375166545055949 0.0
0.021270268447342405 -0.014968861438482656 0.0
0.021598938809258828 -0.05846714119482023 0.0
0.0263212306388911 -0.008753629082209335 0.0
0.013687992857152446 -0.05555557342214218 0.0
0.008036298573305962 -0.034493669691113914 0.0
0.01967091821457876 -0.05976943337200936 0.0
0.014526172055766149 -0.05723798988442691 0.0
0.021242628444675303 -0.05479320906872868 0.0
0.028060359935334594 -0.041800773019485725 0.0
0.018518246238951874 -0.06044272519276105 0.0
0.01924558562916518 -0.009782901368007735 0.0
0.01727431341864857 -0.05923513098954152 0.0
0.018156738645936928 -0.05838856809515291 0.0
0.01720561031458326 -0.033947239427135456 0.0
0.01760398022475033 -0.04915579100948045 0.0
0.01744412491259565 -0.03959937596803667 0.0
0.017799848182498364 -0.052904805405459394 0.0
0.006809102014973674 -0.023706017355299168 0.0
0.01960773818194672 -0.009321723705598816 0.0
0.023266856443060185 -0.056047929948206884 0.0
0.018558145688825627 -0.06044283179273717 0.0
0.01798476684788324 -0.06021069563076708 0.0
0.014695519527288802 -0.013056371361641114 0.0
0.030197083679301198 -0.02775371671867874 0.0
0.023513610013066417 -0.037132499154565776 0.0
0.023588012588249517 -0.042214789866539086 0.0
0.021888539216669205 -0.051399193980230004 0.0
0.014507295480962095 -0.04691018227327596 0.0
0.015183084692166626 -0.05104957858595316 0.0
0.016573170557268698 -0.05733676387715855 0.0
0.008425982331873192 -0.03960997426640478 0.0
0.007476434279834424 -0.03395552809516453 0.0
0.015430850757304345 -0.05516099542694338 0.0
0.013192427169481255 -0.043239929890336586 0.0
0.013946827941363128 -0.04790396903613928 0.0
0.021477382518809488 -0.03696600182978687 0.0
0.020737689329615606 -0.015474194195733305 0.0
0.010874627964561302 -0.009637488263180146 0.0
0.025610503365125326 -0.008312177174202335 0.0
0.01947924646587935 -0.05286685502850948 0.0
0.020018520060691804 -0.03981883373562456 0.0
0.019068774451440836 -0.05828618312199822 0.0
0.019670362632432655 -0.04908735656934132 0.0
0.020071867853064994 -0.03369937326967842 0.0
0.02892939133888463 -0.032831247079411596 0.0
0.011188304872852235 -0.007480159163098989 0.0
0.02358365458367602 -0.04597533332413005 0.0
0.022023529281753475 -0.053920596149773854 0.0
0.024173659227618723 -0.041085419374133285 0.0
0.017498184832653002 -0.0447467786571077 0.0
0.0178390228336677 -0.05310375269366277 0.0
0.017283837927246394 -0.03960515053204564 0.0
0.020249926873232134 -0.05965598164023889 0.0
0.017966240160288537 -0.056117728499048405 0.0
0.013111002004265451 -0.0417491250315455 0.0
0.012466470633228822 -0.03628530769337484 0.0
0.02195164342604256 -0.05810000473741624 0.0
0.01906010644183681 -0.06020571282788798 0.0
0.015631004041130388 -0.025134403063309822 0.0
0.01739386376624429 -0.027761391877856194 0.0
0.016967250277322217 -0.02128625150130081 0.0
0.016409940472131016 -0.057894175266463316 0.0
0.017466648737805502 -0.03396378245226961 0.0
0.009646210413640758 -0.04456845830062923 0.0
0.010942223162216077 -0.04901796204680986 0.0
0.018639563744380035 -0.060246777373152524 0.0
0.02814289112767278 -0.03909280083429707 0.0
0.02471675106256693 -0.0525812675437546 0.0
0.014393691201465733 -0.052640982082426985 0.0
0.013531241689209779 -0.048779012183437075 0.0
0.01192224059261862 -0.028691851248075974 0.0
0.031224367526792033 -0.007629271800808569 0.0
0.0062498451449090305 -0.009940489090447929 0.0
0.019701792142964053 -0.0212010241655587 0.0
0.019326934211637527 -0.05918426781347455 0.0
0.018194238155343382 -0.05828790753457245 0.0
0.017795698290294395 -0.05895153765490811 0.0
0.016295978570346634 -0.009599744107430818 0.0
0.016704152155972915 -0.05958957777458895 0.0
0.03075038169398974 -0.021265262307710572 0.0
0.01755736256202916 -0.02760535417104961 0.0
0.024576082860242265 -0.014445131398160919 0.0
0.01693608410532797 -0.05871992419782125 0.0
0.017958747932306285 -0.049204775157434995 0.0
0.018113381372931163 -0.056213463736076504 0.0
0.017748988872078597 -0.04491866350527582 0.0
0.012069830481498497 -0.025580548101452293 0.0
0.012297300842949369 -0.035721220136657995 0.0
0.011738414640726601 -0.029687171125614566 0.0
0.015418229556792812 -0.055157758369171056 0.0
0.014532723573962757 -0.05187797289605631 0.0
0.01884609444607466 -0.059697590538268605 0.0
0.014903069602936308 -0.058007039325539106 0.0
0.02579950994862426 -0.02390073424649048 0.0
0.02596457362347867 -0.033893777391157454 0.0
0.023766920901907934 -0.04913791741131406 0.0
0.017969105381366285 -0.059197076828901796 0.0
0.020839299312461864 -0.05827903822541749 0.0
0.006140399183988222 -0.028040504516926388 0.0
0.011192659950068354 -0.023130667473453832 0.0
0.011767702691716776 -0.019852866838462893 0.0
0.021516033388630645 -0.030488363970281776 0.0
0.0204795173566642 -0.05089706008388391 0.0
0.020840361068254758 -0.04683070384191036 0.0
0.019716100684857112 -0.05718559056940376 0.0
0.02290457710507997 -0.053073243123797076 0.0
0.01690119186459589 -0.05110227523459245 0.0
0.017586663151522273 -0.05735975449808551 0.0
0.016548132954386334 -0.047025596930084006 0.0
0.03058779558581767 -0.013411803634779245 0.0
0.018446822066666 -0.059852627202164235 0.0
0.021612912807630627 -0.04715231370172124 0.0
0.021829675981551316 -0.04280155816088885 0.0
0.020491436548021512 -0.05498494918134143 0.0
0.01995161192645555 -0.05450856526551001 0.0
0.013557878078968173 -0.05593158250936027 0.0
0.018898452698360952 -0.060302622742809855 0.0
0.020308396952138156 -0.05106395548969421 0.0
0.021114231115124966 -0.03658106734851805 0.0
0.021021446468765883 -0.02455409764393459 0.0
0.02479105731840526 -0.05241697111735247 0.0
0.011400392181688064 -0.013406643009923417 0.0
0.02511768419976035 -0.01271619872382207 0.0
0.02749930256509804 -0.044349124539513195 0.0
0.010276486420698373 -0.022526477488749534 0.0
0.01716300425070954 -0.059625426490679194 0.0
0.02542705845019971 -0.019429540264279524 0.0
0.024805407670473664 -0.020012896948647562 0.0
0.01957326751438997 -0.05727461815177652 0.0