<VTKFile type="UnstructuredGrid"  version="0.1">
<UnstructuredGrid>
<Piece NumberOfPoints="713" NumberOfCells="1304">
<Points>
<DataArray type="Float64" NumberOfComponents="3" format="ascii">
0.0 0.0 0.0
10.0 0.0 0.0
10.0 2.0 0.0
5.0 2.0 0.0
0.0 2.0 0.0
0.199999999999856 0.0 0.0
0.3999999999996677 0.0 0.0
0.5999999999994683 0.0 0.0
0.7999999999993286 0.0 0.0
0.9999999999991888 0.0 0.0
1.199999999999033 0.0 0.0
1.399999999998576 0.0 0.0
1.599999999997992 0.0 0.0
1.799999999997408 0.0 0.0
1.999999999996825 0.0 0.0
2.199999999996241 0.0 0.0
2.399999999995657 0.0 0.0
2.599999999995073 0.0 0.0
2.79999999999449 0.0 0.0
2.999999999993906 0.0 0.0
3.199999999993322 0.0 0.0
3.399999999992738 0.0 0.0
3.599999999992154 0.0 0.0
3.799999999991571 0.0 0.0
3.999999999991022 0.0 0.0
4.199999999991187 0.0 0.0
4.399999999991491 0.0 0.0
4.599999999991795 0.0 0.0
4.799999999992099 0.0 0.0
4.999999999992403 0.0 0.0
5.199999999992706 0.0 0.0
5.39999999999301 0.0 0.0
5.599999999993313 0.0 0.0
5.799999999993618 0.0 0.0
5.999999999993922 0.0 0.0
6.199999999994227 0.0 0.0
6.39999999999453 0.0 0.0
6.599999999994833 0.0 0.0
6.799999999995138 0.0 0.0
6.999999999995442 0.0 0.0
7.199999999995747 0.0 0.0
7.39999999999605 0.0 0.0
7.599999999996353 0.0 0.0
7.799999999996658 0.0 0.0
7.999999999996962 0.0 0.0
8.199999999997265 0.0 0.0
8.399999999997569 0.0 0.0
8.599999999997873 0.0 0.0
8.799999999998176 0.0 0.0
8.99999999999848 0.0 0.0
9.199999999998786 0.0 0.0
9.399999999999089 0.0 0.0
9.599999999999392 0.0 0.0
9.799999999999697 0.0 0.0
10.0 0.1999999999996293 0.0
10.0 0.3999999999991157 0.0
10.0 0.5999999999985328 0.0
10.0 0.7999999999979498 0.0
10.0 0.9999999999973885 0.0
10.0 1.199999999997894 0.0
10.0 1.39999999999842 0.0
10.0 1.599999999998947 0.0
10.0 1.799999999999474 0.0
9.799999999999999 2.0 0.0
9.6 2.0 0.0
9.399999999999999 2.0 0.0
9.2 2.0 0.0
8.999999999999998 2.0 0.0
8.799999999999999 2.0 0.0
8.599999999999998 2.0 0.0
8.399999999999999 2.0 0.0
8.2 2.0 0.0
7.999999999999998 2.0 0.0
7.799999999999999 2.0 0.0
7.599999999999999 2.0 0.0
7.399999999999999 2.0 0.0
7.199999999999999 2.0 0.0
7.0 2.0 0.0
6.799999999999999 2.0 0.0
6.6 2.0 0.0
6.399999999999999 2.0 0.0
6.199999999999999 2.0 0.0
5.999999999999999 2.0 0.0
5.8 2.0 0.0
5.6 2.0 0.0
5.399999999999999 2.0 0.0
5.199999999999999 2.0 0.0
4.8 2.0 0.0
4.6 2.0 0.0
4.399999999999999 2.0 0.0
4.199999999999998 2.0 0.0
3.999999999999999 2.0 0.0
3.799999999999999 2.0 0.0
3.599999999999999 2.0 0.0
3.399999999999999 2.0 0.0
3.199999999999998 2.0 0.0
2.999999999999999 2.0 0.0
2.799999999999999 2.0 0.0
2.599999999999999 2.0 0.0
2.399999999999999 2.0 0.0
2.199999999999999 2.0 0.0
2.0 2.0 0.0
1.799999999999999 2.0 0.0
1.599999999999999 2.0 0.0
1.399999999999999 2.0 0.0
1.199999999999999 2.0 0.0
0.9999999999999991 2.0 0.0
0.7999999999999998 2.0 0.0
0.5999999999999996 2.0 0.0
0.3999999999999995 2.0 0.0
0.1999999999999993 2.0 0.0
0.0 1.799999999999167 0.0
0.0 1.6 0.0
0.0 1.400000000001387 0.0
0.0 1.200000000002774 0.0
0.0 1.000000000004117 0.0
0.0 0.8000000000033287 0.0
0.0 0.6000000000024965 0.0
0.0 0.4000000000016644 0.0
0.0 0.200000000000832 0.0
1.499207686858938 0.9671416246672391 0.0
2.690335006295381 0.9619521672166851 0.0
3.892537609238439 1.007271393615351 0.0
8.916602958236062 0.9848120741100651 0.0
7.714518201951718 1.024234589865042 0.0
6.514518201951581 1.024234589865268 0.0
5.299999999999998 1.000000000000349 0.0
0.7620577975594133 1.201991596673393 0.0
4.61755859746166 1.240410629378135 0.0
2.099999999996533 0.6749999999988996 0.0
3.289480163184942 0.6802242156869155 0.0
8.299999999999976 1.325000000000064 0.0
7.110519836808121 1.319775784312006 0.0
5.893184537067197 1.292851873188582 0.0
3.268568008578649 1.341967835735878 0.0
2.118368267083699 1.321829331075689 0.0
5.930896443153832 0.6493414313150682 0.0
7.106926174231782 0.6329785805444448 0.0
8.306926174233002 0.6329785805444098 0.0
4.427960725065653 0.6389803625370323 0.0
0.9828791719046732 0.6520555711814596 0.0
9.383333333333349 0.6166666666667164 0.0
9.383333333333326 1.383333333333367 0.0
4.974443803660211 0.5526668589022862 0.0
1.248084267804327 1.464555585366204 0.0
4.139486343919472 1.468449088519687 0.0
5.077806736162063 1.478342020848787 0.0
1.629462398503482 0.5098631373669138 0.0
2.579462070540726 0.5133714280880515 0.0
3.770778974032556 0.5099482598296803 0.0
8.764748922637567 1.526880805960684 0.0
7.820537929455645 1.486628571911716 0.0
6.632254923791462 1.492045881343967 0.0
2.796478414430566 1.477149214423874 0.0
6.403521585563812 0.5228507855762514 0.0
7.603521585564883 0.5228507855756581 0.0
8.783559188644787 0.5066440811355862 0.0
0.5060338924245764 0.5082251307884346 0.0
5.451633334958382 0.4799315318847731 0.0
1.683269995544083 1.547372422998862 0.0
0.448590368789599 1.551409631210402 0.0
5.545526974704655 1.582008455135239 0.0
3.666056976948354 1.56999765613834 0.0
0.4385739326402744 0.9352922270094057 0.0
9.58170539854767 0.9922137522194456 0.0
4.93200119575972 0.9247090920592975 0.0
6.20679636316332 1.642443126922768 0.0
7.418963044745086 1.587405313446662 0.0
2.98103695524982 0.412594686552066 0.0
2.420975602092416 1.592770352831584 0.0
7.97902439790374 0.4072296471687943 0.0
6.779024397902082 0.4072296471687297 0.0
1.130444757308209 0.9859238872709168 0.0
0.8901814758011342 1.60566856081121 0.0
4.263670373274499 0.9915754392410991 0.0
3.096698167273431 1.009056907826855 0.0
6.088506433998166 0.9857489435828969 0.0
1.902225037409936 1.003483800311746 0.0
7.288506433998439 0.9857489435828686 0.0
8.498964973312972 1.005823551167602 0.0
2.307571737417198 1.008136792450924 0.0
8.100397971125554 1.000138280273345 0.0
6.900397971125225 1.000138280273792 0.0
3.499307350770321 0.9996496628144824 0.0
5.703656022566558 0.9885479657552226 0.0
4.719420624357892 1.622286409566126 0.0
4.099803549896894 0.3600308081356619 0.0
1.286100671532495 0.3637431910670685 0.0
9.120549139677793 1.655065205594329 0.0
9.11726214008418 0.3400668903113251 0.0
4.642568097328033 0.3514924793220939 0.0
9.630437629189052 0.3309104953729904 0.0
9.674493769554315 1.668196579944218 0.0
1.936458797611609 0.3337070483410596 0.0
3.461817573918652 0.3447876019040473 0.0
8.440152788772068 1.649667667046397 0.0
6.973083089482548 1.643748677366674 0.0
3.126874515006838 1.659115470008545 0.0
6.070607878384977 0.3410183041038941 0.0
7.255014454789089 0.32792256737713 0.0
8.462493615948901 0.3368393217476116 0.0
9.236261261261264 0.9276047786917867 0.0
5.885444386845415 1.667751020273455 0.0
0.8062340689595878 0.3261579034781319 0.0
2.29463843780282 0.308358158429197 0.0
8.10536156219338 1.691641841570632 0.0
4.041916759198581 0.7211683801597477 0.0
1.324377365289917 0.710525897087282 0.0
9.023167917315867 1.292262965009952 0.0
2.044244009166302 1.693807225416931 0.0
0.7675765545556328 0.8969765944392112 0.0
2.86965991063896 0.7069213925303978 0.0
6.330340089355722 1.293078607468788 0.0
7.530340089355831 1.29307860746885 0.0
2.509347777214458 1.27231292939881 0.0
7.890652222779963 0.7276870706009825 0.0
6.690652222780154 0.7276870706013264 0.0
4.380959112578968 1.65866292149053 0.0
0.3278422400819535 1.233362752678148 0.0
5.754468991464942 0.3469215055361071 0.0
9.69195804401614 0.7000195364707393 0.0
9.691250997975434 1.303243780084337 0.0
5.54324561063747 1.237401556904767 0.0
9.044596057577811 0.6843248705785732 0.0
5.208929198448351 0.3519433027337513 0.0
3.708880196230617 1.249762029554333 0.0
1.713349558540635 1.234899745098077 0.0
4.586522821995393 0.9261740906803194 0.0
5.241145838821565 0.7007005766013242 0.0
1.434457446926135 1.701926055218157 0.0
0.2821921707428039 0.3393165318407161 0.0
3.42846431357046 1.714274134409306 0.0
5.26283485467567 1.710141275531951 0.0
3.966530105129177 1.718376080180638 0.0
4.891301048299285 1.259923533724591 0.0
0.2787500712946937 0.6906723798523376 0.0
1.822166578929051 0.7301892210727335 0.0
8.593276160688786 1.287322908694633 0.0
2.386017956680413 0.7288816957021155 0.0
3.576911792171353 0.7225526638483954 0.0
8.013982043315597 1.271118304297217 0.0
6.82303669320588 1.277631295759485 0.0
2.891837633696712 1.215141906356511 0.0
8.708162366297856 0.7848580936429009 0.0
7.496736072543097 0.7897651325976158 0.0
6.296736072542775 0.7897651325982009 0.0
5.523181420933933 0.7588744249744506 0.0
4.725538117155759 0.6529070682798582 0.0
2.736307197014292 0.273961667653487 0.0
7.663692802980817 1.726038332346062 0.0
6.446842959287713 1.783714797320288 0.0
1.126188383272983 1.743715177525389 0.0
2.64757240694847 1.787239829472812 0.0
6.546646507559373 0.2589894635657943 0.0
7.746646507561152 0.2589894635657218 0.0
4.079302268890254 1.221431431691139 0.0
4.433746883463333 0.2983726043497702 0.0
1.032697650548726 1.318076986199429 0.0
1.309492735411376 1.208980965369829 0.0
3.896105387998365 0.2579746081881307 0.0
9.378751775005455 1.725996478164223 0.0
9.3965279828929 0.2649862374471925 0.0
1.515757555362918 0.2603060454608533 0.0
4.959097093232828 1.726144293543605 0.0
4.912501341257775 0.2529154558175828 0.0
4.342421824442713 1.285376618065631 0.0
7.023506283123107 0.293611963231815 0.0
8.215829626877609 0.2682061590942965 0.0
5.28145265730745 1.291130016052329 0.0
8.693992162747364 1.744100892812201 0.0
0.6256567126095668 1.775064851453201 0.0
0.2724967459749605 1.756941612685287 0.0
8.90781713264278 0.2741674349222226 0.0
7.184202236567151 1.709454269177068 0.0
3.212962614055919 0.2641656831057426 0.0
0.6761590188374282 0.6746441670621973 0.0
1.020489328989316 0.2487299689497893 0.0
1.485017749467193 1.402133856149482 0.0
6.734223224917944 1.790518105434539 0.0
2.657549589911705 0.7636227781082678 0.0
6.542590471647475 1.237213715285722 0.0
7.742745187066703 1.235538225115726 0.0
0.5794341726414672 0.2480285055479751 0.0
1.842901067642841 1.760146518280044 0.0
3.84389577648662 0.7524680119172447 0.0
3.061589173628368 1.407936939342627 0.0
6.144447294584154 0.5911674363009913 0.0
7.344447294585433 0.5911674362995804 0.0
8.544447294586682 0.5911674362982269 0.0
5.491507940982565 0.1734458797927824 0.0
[...]
<PointData Vectors="fields">
<DataArray type="Float64" Name="U" NumberOfComponents="3" format="ascii">
0.0 0.0 0.0
0.027293381410917708 0.0 0.0
0.0022028846607944435 -0.00503054173438291 0.0
0.013568479836346611 -0.04377942343593025 0.0
0.024953365508379365 -0.004716956450723788 0.0
0.0002845516389810008 -0.005202856424803406 0.0
0.000849845390128054 -0.008549300808431895 0.0
0.001358813008379168 -0.011509187177593739 0.0
0.0017855304635126716 -0.014112563827126392 0.0
0.0021596182630587305 -0.01659750830851354 0.0
0.002520812305196428 -0.018985387384534216 0.0
0.0028842999749554296 -0.021284393748598314 0.0
0.0032835554943367877 -0.0235066191213911 0.0
0.0036960988057424837 -0.02565307840929575 0.0
0.0041417445804052865 -0.02770082186175204 0.0
0.004609853431211882 -0.02964911570369897 0.0
0.005120271180692683 -0.031499491557822806 0.0
0.005640212379826589 -0.03323661387435356 0.0
0.00621336826950466 -0.034860545853369444 0.0
0.006785493050998087 -0.03636443131658415 0.0
0.0074047738687196794 -0.03774191695642905 0.0
0.00802743901922186 -0.03898134981017319 0.0
0.008683645355088296 -0.04009146983826298 0.0
0.009346733018590672 -0.041035761619040476 0.0
0.010018242973779916 -0.04188228815624096 0.0
0.010718574626965752 -0.04256379833999097 0.0
0.011412298635517484 -0.04309225239040611 0.0
0.012126566727918089 -0.043477338895143575 0.0
0.012828169294232371 -0.043702978940450256 0.0
0.01355687538716356 -0.04378415310350488 0.0
0.014263579232550783 -0.0437136635778546 0.0
0.014968278611819867 -0.04348801506541995 0.0
0.01566863550841476 -0.04311460764937789 0.0
0.016359451111094235 -0.04258845806440587 0.0
0.017031046539543584 -0.0419211313525334 0.0
0.017716523084131186 -0.04111804423842663 0.0
0.018364301539719078 -0.040134028462679 0.0
0.019013333379701014 -0.039057246695380896 0.0
0.019631734728576863 -0.03784031089162068 0.0
0.02024781283971739 -0.036471515479589135 0.0
0.020827607818830002 -0.0349798320195022 0.0
0.02138531655520437 -0.03337245544292797 0.0
0.02190221545916353 -0.031622835025971935 0.0
0.02240722059977971 -0.029803712405637183 0.0
0.02287306491770297 -0.02787535465619205 0.0
0.023321453559954082 -0.025840606816993336 0.0
0.023733991858545217 -0.0237079351039313 0.0
0.02412914405967327 -0.02149991050976661 0.0
0.024490447036207348 -0.019208500178540706 0.0
0.024859707677243638 -0.01682997130107877 0.0
0.025222021823750742 -0.014366691457763089 0.0
0.025625124168107385 -0.011765753545608458 0.0
0.026072721167155224 -0.008944626073078998 0.0
0.026765409566496187 -0.005586739203129727 0.0
0.02305157130294007 -0.001987525137704079 0.0
0.020307817023727782 -0.0030772335348740673 0.0
0.017816565549733984 -0.00376869032160132 0.0
0.015528381931945116 -0.004290281430187232 0.0
0.013307984905418622 -0.004617907839059224 0.0
0.011127693534582057 -0.004831327200867611 0.0
0.008949368229717519 -0.004960361421803188 0.0
0.006738788168925032 -0.005018268632894092 0.0
0.00448901630166972 -0.0050303274990934725 0.0
0.002201257157468801 -0.00732511847674234 0.0
0.0022078048793633858 -0.009649240249761413 0.0
0.0022509009757944115 -0.012008887032994344 0.0
0.002349780593239717 -0.014392529598299768 0.0
0.002513036932103984 -0.01676667016385786 0.0
0.0027344415420192322 -0.019100446184985593 0.0
0.003016577024530262 -0.02140335403887945 0.0
0.0033469929892616015 -0.02362543111589046 0.0
0.0037264242755775234 -0.02576582242999397 0.0
0.004158942031178573 -0.027821319651101267 0.0
0.004611619804512989 -0.029770826558204417 0.0
0.005121321731227374 -0.03161808908963931 0.0
0.005638134279984318 -0.033352143406174484 0.0
0.0062057674161783575 -0.03496687817782287 0.0
0.006793186883918756 -0.0364627896838329 0.0
0.00740786902147484 -0.03782875098409633 0.0
0.008032945097999927 -0.03903155030629124 0.0
0.008694001936574389 -0.040155811444554004 0.0
0.009371082115138787 -0.041104241395626503 0.0
0.01004207873584613 -0.04191555314351001 0.0
0.010738409067177705 -0.042590231789119165 0.0
0.01145227473602809 -0.04311050307761372 0.0
0.012138866290181714 -0.04348197231075502 0.0
0.012857244532742548 -0.04370750420112905 0.0
0.014300955787387885 -0.04368848086774727 0.0
0.015005734244158516 -0.04346139251645396 0.0
0.01570698167379523 -0.043085551986583925 0.0
0.016423555154165746 -0.042567965191486715 0.0
0.017129003600755806 -0.041881126113367195 0.0
0.017826763186696286 -0.041051051447407325 0.0
0.01847495195175938 -0.04008556329630925 0.0
0.019126664074915097 -0.038977552271051236 0.0
0.019754167354002178 -0.0377400048773193 0.0
0.02037034534889322 -0.03636543563776877 0.0
0.020943798126946543 -0.03483389095627597 0.0
0.02150998605429584 -0.03322964643464516 0.0
0.022033859010808926 -0.03147891772690114 0.0
0.022525133679048768 -0.029617406585599054 0.0
0.022999120056999077 -0.02765009169558649 0.0
0.023428137296584106 -0.025582769338746147 0.0
0.023803728539898653 -0.02343044067095979 0.0
0.024148844824289892 -0.021188222706135115 0.0
0.02442859464659755 -0.018881893129091814 0.0
0.024652334505438685 -0.016518704194368745 0.0
0.024807672912300092 -0.014133409996695738 0.0
0.02490048081250869 -0.011736311358306354 0.0
0.02494602489441112 -0.00936444337265126 0.0
0.024956872670687687 -0.0070228346743375514 0.0
0.0226531747110615 -0.004718106309885664 0.0
0.02038876199038947 -0.004706546250413695 0.0
0.018167397108507875 -0.004652822825033759 0.0
0.015969930390215402 -0.004529188193858575 0.0
0.013779959096526477 -0.0043010918612930785 0.0
0.011547863274346678 -0.003977523062266596 0.0
0.009245882363208304 -0.003460585611819362 0.0
0.006760582654743214 -0.0027459674080441265 0.0
0.003812721774071353 -0.0015519417572288537 0.0
0.013288655940625971 -0.022511903945115146 0.0
0.013290193789149278 -0.03423749570514456 0.0
0.013593260651963953 -0.041771319835193554 0.0
0.013558321971926184 -0.017878545431649538 0.0
0.013310001808033177 -0.03081855053402046 0.0
0.013408773312359068 -0.03984919009448544 0.0
0.013551026670155019 -0.043941701257042415 0.0
0.015944891866289654 -0.013693077992697807 0.0
0.013883586016628313 -0.04380824626682567 0.0
0.010670591223099643 -0.02887191829172367 0.0
0.011735740945176508 -0.038573745363914114 0.0
0.010345715377467233 -0.024879180883559532 0.0
0.011327180696523751 -0.035893922217702844 0.0
0.012651939088958434 -0.042593431451174155 0.0
0.015562939818672256 -0.038439837653081704 0.0
0.016438043219537138 -0.029026978156679723 0.0
0.01465630380634463 -0.042455124577353766 0.0
0.016039644374346653 -0.035927122713447945 0.0
0.017070117026186958 -0.024860367530640793 0.0
0.012847674621346061 -0.04344551124865019 0.0
0.009895612099684764 -0.01644309971660707 0.0
0.017581362094826337 -0.012042545943136383 0.0
0.009172034846487152 -0.012195991880346788 0.0
0.013514801185656112 -0.044040958295170005 0.0
0.018499553044478905 -0.01954468805163816 0.0
0.014980512977908037 -0.04262088973172244 0.0
0.013422652146438785 -0.044016675757470064 0.0
0.008702727847621586 -0.023955351731358467 0.0
0.009772474827364928 -0.03325274524056588 0.0
0.011494459936788222 -0.04115787188855916 0.0
0.007959002287006503 -0.019610061374516142 0.0
0.009264281095650516 -0.02974566637627911 0.0
0.010834231933061815 -0.039091557897041586 0.0
0.01701190439631183 -0.03502817079352312 0.0
0.015797570043676216 -0.04036817874757755 0.0
0.017430696585587133 -0.03178914255808874 0.0
0.018698543919172184 -0.019490649136120468 0.0
0.008181224565836772 -0.010255590074178662 0.0
0.014367438227486887 -0.04364428075508674 0.0
0.018972374151950418 -0.02446170236873385 0.0
0.01982346073054252 -0.009918211074943081 0.0
0.012455705554776557 -0.0434461839487719 0.0
0.016198234945869753 -0.04062935825479912 0.0
0.013114847947201249 -0.009554898385482142 0.0
0.013344886690937564 -0.009616029657393183 0.0
0.013539760177017928 -0.044111044716780595 0.0
0.010891881400616438 -0.04126033956159236 0.0
0.008962731360700825 -0.033355449955323475 0.0
0.009638010232004057 -0.03640663385598603 0.0
0.018452377176307173 -0.031828544633956075 0.0
0.018924275136128772 -0.02821343326679357 0.0
0.017046099988504575 -0.03815422275341649 0.0
0.013532476183031104 -0.018209310363433637 0.0
0.020251089165863167 -0.015252334082919086 0.0
0.013544746256262558 -0.04307570766454893 0.0
0.013631402987983304 -0.03732344961082197 0.0
0.013592823881425149 -0.041896035634975556 0.0
0.013622595579825106 -0.02687907266859337 0.0
0.013626521364102952 -0.034531179711489945 0.0
0.013408552557836195 -0.02273595426580056 0.0
0.013646210506995837 -0.030877165230909304 0.0
0.013497868144761864 -0.027027955392433654 0.0
0.013523295208333114 -0.0374434667536591 0.0
0.013568122045181027 -0.03985551724836071 0.0
0.013566716580913157 -0.043183041100384366 0.0
0.014178523136736036 -0.04383830248479021 0.0
0.011557884692948698 -0.04243950057013336 0.0
0.0068175372826832495 -0.020078856199343458 0.0
0.006328033339369987 -0.015376164560049498 0.0
0.020847728878531504 -0.015463907254591371 0.0
0.012747197236262449 -0.04373596422077888 0.0
0.021110244241779236 -0.008548417945403897 0.0
0.005988158558129212 -0.008764574580038336 0.0
0.007302608403476756 -0.02717805955672903 0.0
0.010127137679296268 -0.03952467847141886 0.0
0.0069844959035906574 -0.023282884165682367 0.0
0.009313243699108424 -0.03682082986011379 0.0
0.017722628702433966 -0.03741328179395953 0.0
0.015964592642113338 -0.04183695956019586 0.0
0.018450739000738674 -0.034696329619806454 0.0
0.020236488158347454 -0.02313026976872662 0.0
0.014106443155603068 -0.013956568401326287 0.0
0.011513864765818213 -0.042505098679897095 0.0
0.005970081782296571 -0.014253037782076153 0.0
0.0076323368564534845 -0.030662668029968924 0.0
0.006998000431217987 -0.026857288385195577 0.0
0.012643874777156495 -0.04233840604591003 0.0
0.010614173846087057 -0.020529159097923147 0.0
0.010279315756887425 -0.016572091680099973 0.0
0.019935348776746055 -0.02821336022513348 0.0
0.012641051730073771 -0.013742828880067106 0.0
0.011531115171122848 -0.03565033145161451 0.0
0.012223112699863398 -0.04079520466926875 0.0
0.011179656096746343 -0.03246721786757609 0.0
0.01573585594432733 -0.03267437764151651 0.0
0.015922073054362888 -0.029133094296689487 0.0
0.015062894731219377 -0.038793906177754744 0.0
0.01500776477250074 -0.04324093766740185 0.0
0.01636548946952025 -0.008354149086782475 0.0
0.015251647831825596 -0.042906424977965436 0.0
0.01657359102637053 -0.007960364963541458 0.0
0.009985579640491756 -0.008459035445713067 0.0
0.01310580948837859 -0.04353814191081952 0.0
0.016809208248163315 -0.016347051274600323 0.0
0.014026696445841058 -0.04390215293605816 0.0
0.014674973915342978 -0.040927101676786856 0.0
0.015880751842971358 -0.024849954417472488 0.0
0.01345944893262824 -0.04377812739565643 0.0
0.013800894826120298 -0.04398287089688349 0.0
0.020836940049715553 -0.021660320297119437 0.0
0.0060450265872135965 -0.0068903124319372655 0.0
0.017421641603227206 -0.039292054890476505 0.0
0.012908550040180367 -0.043822700909907183 0.0
0.016172219444960705 -0.04192162563939539 0.0
0.013655587507206022 -0.04405758074993602 0.0
0.010382341317412384 -0.007273173838626111 0.0
0.011015929463929633 -0.02604006146151814 0.0
0.010543616954228901 -0.021625948588933915 0.0
0.011342444270127029 -0.03158575633010087 0.0
0.012232817141089753 -0.04025173170460463 0.0
0.01104221786311024 -0.027878721760290933 0.0
0.011859278597207708 -0.03793839917547457 0.0
0.015058049243660988 -0.03581497862363755 0.0
0.015678192997527436 -0.020363061133722916 0.0
0.015177378300011172 -0.03276969353185167 0.0
0.014456727968033068 -0.04095448782165995 0.0
0.013980706334815147 -0.04357946562491119 0.0
0.01322677452827159 -0.04392730993745511 0.0
0.008172096370043277 -0.03448155700588702 0.0
0.007395712164118502 -0.031153424468740296 0.0
0.009664108765028477 -0.04001947969408989 0.0
0.02160686357456103 -0.018065159315549768 0.0
0.01964202604078603 -0.03371815841836122 0.0
0.017421367112202067 -0.03950139300139055 0.0
0.01992401649334588 -0.03040964087335023 0.0
0.0142736409563561 -0.042470446919295635 0.0
0.01216112437604326 -0.043336543284495044 0.0
0.01707814261363298 -0.016997259723952756 0.0
0.015808836687844302 -0.020299318848841556 0.0
0.010708451146813621 -0.04161812384601939 0.0
0.005407619296217363 -0.012273019105211728 0.0
0.021988855617209337 -0.011860506942266863 0.0
0.0059540473508252175 -0.022670508000205914 0.0
0.013666956618096028 -0.04393890122982893 0.0
0.01332634842887076 -0.0439156038508233 0.0
0.014219659733143908 -0.0432527586044324 0.0
0.0182478316732811 -0.03644059996992938 0.0
0.020607042462921058 -0.025763452622265978 0.0
0.013268709764918892 -0.04393242520342119 0.0
0.005709787666289327 -0.020390149116429217 0.0
0.022279457830169776 -0.012056761286881289 0.0
0.022154062791040915 -0.007859036649412445 0.0
0.021447026072516626 -0.018009704747736492 0.0
0.008438519906233358 -0.03522196543561072 0.0
0.009124375300268377 -0.03795866545414121 0.0
0.010153529726676594 -0.012560037024856146 0.0
0.0052079829046130875 -0.016907539838482318 0.0
0.017683820114018013 -0.02228545700626367 0.0
0.00889492726127133 -0.03834533836716274 0.0
0.011783836358161874 -0.033954547756572806 0.0
0.012304188364628293 -0.0396728793625466 0.0
0.011509761357105127 -0.030532382915175717 0.0
0.004820201608031405 -0.011245328614580791 0.0
0.020892753793801566 -0.02611650509857819 0.0
0.012582688282636412 -0.041539850861215644 0.0
0.01619540614340723 -0.03702626911364958 0.0
0.01512554802368867 -0.04160435328913109 0.0
0.016586257815007742 -0.034032585609399126 0.0
0.017638334544340523 -0.022237419664295974 0.0
0.014972997046006025 -0.0434419778153526 0.0
0.011371085532668954 -0.023237222230425954 0.0
0.01885338120671897 -0.035991431875843964 0.0
0.019574715224228677 -0.03303689115003968 0.0
0.01682733395733186 -0.040997137642367745 0.0
0.01879951869251664 -0.012701206415113733 0.0
0.011310875546583114 -0.012166271321304718 0.0
0.011788117116437 -0.043028286952479074 0.0
0.015155107898549403 -0.04163781615295078 0.0
0.007150475504339218 -0.03254894821759429 0.0
0.006362695247363897 -0.028971157171796196 0.0
0.014725020680476904 -0.043018100631943064 0.0
0.011005636511297564 -0.019506525525561643 0.0
0.018364001529977084 -0.02737455115246221 0.0
0.015515177894753459 -0.011021655619152245 0.0
0.015809796982153363 -0.042659206405977555 0.0
0.019185791222036862 -0.006507758292368589 0.0
0.009998995692703506 -0.04052187197678364 0.0
0.005909432487790617 -0.025181539002917017 0.0
0.014382060929663017 -0.04361196435197893 0.0
0.01061931019867279 -0.04176142154856672 0.0
0.015548134445523921 -0.03995899209867626 0.0
0.020476945091376653 -0.03048597188550837 0.0
0.013535057814467816 -0.044094189069622855 0.0
0.014044361875906335 -0.007252320927365399 0.0
0.012618409662072836 -0.0432077165189887 0.0
0.013263068526205828 -0.042590030150847634 0.0
0.012581566711432485 -0.0249095612235468 0.0
0.012860072494646801 -0.035907809712665516 0.0
0.012745086339241003 -0.02888179984360524 0.0
0.013011153180639744 -0.038572834095334886 0.0
0.00502993056765293 -0.017469340720166086 0.0
0.014321579393796625 -0.006977070562494827 0.0
0.017040888111690338 -0.04088307336037737 0.0
0.013575522970503772 -0.04409570722288664 0.0
0.013134755248425015 -0.04392269626542967 0.0
0.010738064487201373 -0.009628202147945193 0.0
0.02201513637515439 -0.02041332679333103 0.0
0.0171481697978263 -0.02721748650249335 0.0
0.017223778926527013 -0.0307818179426785 0.0
0.015959589557608234 -0.03753131872142939 0.0
0.01061826113055597 -0.03428566130984972 0.0
0.0110901806465782 -0.0372150863484455 0.0
0.012108644877632342 -0.04182926941349122 0.0
0.006188041114926638 -0.028892984950397913 0.0
0.005529082499225451 -0.024916621509703262 0.0
0.011277093204012992 -0.040253008765992124 0.0
0.009670893248299344 -0.03163500063500898 0.0
0.01018971481565016 -0.0349184415528947 0.0
0.01567791615495326 -0.026973281894939576 0.0
0.015144434026456141 -0.011466882523877049 0.0
0.007976165216964178 -0.007221923016267484 0.0
0.018688464509934173 -0.006218165311599223 0.0
0.01424638689244991 -0.038544716041964 0.0
0.01461954239152711 -0.029041479616400925 0.0
0.013928198225217129 -0.04251517076326973 0.0
0.014356440838669618 -0.0358591993682925 0.0
0.014658801494338987 -0.024729801333846002 0.0
0.021088376730255664 -0.023978402044541377 0.0
0.008191740653970327 -0.005560063747154516 0.0
0.01723377515250178 -0.033514455907515645 0.0
0.016058290030079688 -0.039354971447884725 0.0
0.017619839565035614 -0.03007823272433173 0.0
0.01278661371579896 -0.03261808069040748 0.0
0.013028471596177352 -0.03876214633015911 0.0
0.012635817842058455 -0.02900689432248394 0.0
0.014805947473245066 -0.043528918817045056 0.0
0.013136461595442612 -0.04093220266595302 0.0
0.009590262860841506 -0.03044234703622798 0.0
0.009147289493820893 -0.026604474863389058 0.0
0.016026380460748686 -0.04238741961158544 0.0
0.013929680964769759 -0.043928594175856456 0.0
0.011419538239775913 -0.01839426285024556 0.0
0.01270181525165564 -0.020298776332017217 0.0
0.012407098992571608 -0.01570704492674514 0.0
0.011999792611498911 -0.04223772766896526 0.0
0.01275827666473007 -0.024795504369781573 0.0
0.007102718040120701 -0.032597170533712555 0.0
0.007993045061609102 -0.03573509633518379 0.0
0.013628288745237657 -0.04395850872467964 0.0
0.020495494136229954 -0.0286369119695439 0.0
0.018003470319994098 -0.03838907274570816 0.0
0.010511361216039638 -0.03838179336217796 0.0
0.009907190831024747 -0.035636116957933256 0.0
0.008727870703628147 -0.020973702193565084 0.0
0.02279713291558466 -0.005696589048948274 0.0
0.004613207570325136 -0.007444718589187828 0.0
0.014376220117948157 -0.015542835854561012 0.0
0.01412264565950206 -0.043168505552880695 0.0
0.013306167036798421 -0.04252680490217679 0.0
0.013015950232582413 -0.043013429937234796 0.0
0.011915408447169245 -0.007187341227631366 0.0
0.012201643779808095 -0.04347093534330001 0.0
0.022403164591176326 -0.015591922739758832 0.0
0.01283719548531495 -0.020305566652679845 0.0
0.01791772973713289 -0.010642013756655626 0.0
0.012388188736423203 -0.0428433966955477 0.0
0.013125518815886021 -0.03586484863506777 0.0
0.01322883085888941 -0.04101327753208091 0.0
0.012968612039775756 -0.032847249967562255 0.0
0.008833568468297172 -0.01871803017430386 0.0
0.009002131068594477 -0.02607003822662843 0.0
0.008615864884341037 -0.021818418659396488 0.0
0.011264737707790028 -0.04022812948388965 0.0
0.010627606552025656 -0.037876133724146735 0.0
0.013781456134247774 -0.043559834139880446 0.0
0.010900156145514022 -0.042321692815864835 0.0
0.01880967049064108 -0.01750158554307707 0.0
0.01892905261830283 -0.02487055290802476 0.0
0.017317043727379543 -0.03589825236902891 0.0
0.013126741441049021 -0.04317820497247171 0.0
0.015218542916420438 -0.042513308928602174 0.0
0.004532362113473976 -0.020502964150166055 0.0
0.008214314048255393 -0.017050693265839804 0.0
0.00862954647428173 -0.014663793196225364 0.0
0.015708152294923124 -0.022399987097416956 0.0
0.014977950917697557 -0.03710205451280408 0.0
0.015203781349845973 -0.03422948583316799 0.0
0.01439474055376532 -0.041717198382313414 0.0
0.01676652949055053 -0.038698154131606696 0.0
0.01235025829063021 -0.03725241792077134 0.0
0.012846646300705809 -0.04184438673501912 0.0
0.012097009543091961 -0.03436880650278707 0.0
0.022284451348354502 -0.009892263282353608 0.0
0.013479153236899567 -0.04365613581981669 0.0
0.01579790950690263 -0.034369343875450785 0.0
0.01592260627056349 -0.03131852348134567 0.0
0.014951560754759322 -0.040123983302191454 0.0
0.014596551517788941 -0.0397495106251528 0.0
0.009914827878980553 -0.0408142752925391 0.0
0.013829543517291008 -0.0439920080910455 0.0
0.014817335669026394 -0.03728792214700906 0.0
0.015411523599423332 -0.02681810904271992 0.0
0.01535211944528503 -0.018086150845761706 0.0
0.018148378445523184 -0.0382203270694705 0.0
0.008359037393366608 -0.009966796149925196 0.0
0.018331291719627725 -0.009446597791681506 0.0
0.02008088524705721 -0.032337362284561744 0.0
0.007530101413293378 -0.016503674827331134 0.0
0.012561017777249505 -0.04350567679536157 0.0
0.01855716269244036 -0.01435263541717607 0.0