<VTKFile type="UnstructuredGrid"  version="0.1">
<UnstructuredGrid>
<Piece NumberOfPoints="713" NumberOfCells="1304">
<Points>
<DataArray type="Float64" NumberOfComponents="3" format="ascii">
0.0 0.0 0.0
10.0 0.0 0.0
10.0 2.0 0.0
5.0 2.0 0.0
0.0 2.0 0.0
0.199999999999856 0.0 0.0
0.3999999999996677 0.0 0.0
0.5999999999994683 0.0 0.0
0.7999999999993286 0.0 0.0
0.9999999999991888 0.0 0.0
1.199999999999033 0.0 0.0
1.399999999998576 0.0 0.0
1.599999999997992 0.0 0.0
1.799999999997408 0.0 0.0
1.999999999996825 0.0 0.0
2.199999999996241 0.0 0.0
2.399999999995657 0.0 0.0
2.599999999995073 0.0 0.0
2.79999999999449 0.0 0.0
2.999999999993906 0.0 0.0
3.199999999993322 0.0 0.0
3.399999999992738 0.0 0.0
3.599999999992154 0.0 0.0
3.799999999991571 0.0 0.0
3.999999999991022 0.0 0.0
4.199999999991187 0.0 0.0
4.399999999991491 0.0 0.0
4.599999999991795 0.0 0.0
4.799999999992099 0.0 0.0
4.999999999992403 0.0 0.0
5.199999999992706 0.0 0.0
5.39999999999301 0.0 0.0
5.599999999993313 0.0 0.0
5.799999999993618 0.0 0.0
5.999999999993922 0.0 0.0
6.199999999994227 0.0 0.0
6.39999999999453 0.0 0.0
6.599999999994833 0.0 0.0
6.799999999995138 0.0 0.0
6.999999999995442 0.0 0.0
7.199999999995747 0.0 0.0
7.39999999999605 0.0 0.0
7.599999999996353 0.0 0.0
7.799999999996658 0.0 0.0
7.999999999996962 0.0 0.0
8.199999999997265 0.0 0.0
8.399999999997569 0.0 0.0
8.599999999997873 0.0 0.0
8.799999999998176 0.0 0.0
8.99999999999848 0.0 0.0
9.199999999998786 0.0 0.0
9.399999999999089 0.0 0.0
9.599999999999392 0.0 0.0
9.799999999999697 0.0 0.0
10.0 0.1999999999996293 0.0
10.0 0.3999999999991157 0.0
10.0 0.5999999999985328 0.0
10.0 0.7999999999979498 0.0
10.0 0.9999999999973885 0.0
10.0 1.199999999997894 0.0
10.0 1.39999999999842 0.0
10.0 1.599999999998947 0.0
10.0 1.799999999999474 0.0
9.799999999999999 2.0 0.0
9.6 2.0 0.0
9.399999999999999 2.0 0.0
9.2 2.0 0.0
8.999999999999998 2.0 0.0
8.799999999999999 2.0 0.0
8.599999999999998 2.0 0.0
8.399999999999999 2.0 0.0
8.2 2.0 0.0
7.999999999999998 2.0 0.0
7.799999999999999 2.0 0.0
7.599999999999999 2.0 0.0
7.399999999999999 2.0 0.0
7.199999999999999 2.0 0.0
7.0 2.0 0.0
6.799999999999999 2.0 0.0
6.6 2.0 0.0
6.399999999999999 2.0 0.0
6.199999999999999 2.0 0.0
5.999999999999999 2.0 0.0
5.8 2.0 0.0
5.6 2.0 0.0
5.399999999999999 2.0 0.0
5.199999999999999 2.0 0.0
4.8 2.0 0.0
4.6 2.0 0.0
4.399999999999999 2.0 0.0
4.199999999999998 2.0 0.0
3.999999999999999 2.0 0.0
3.799999999999999 2.0 0.0
3.599999999999999 2.0 0.0
3.399999999999999 2.0 0.0
3.199999999999998 2.0 0.0
2.999999999999999 2.0 0.0
2.799999999999999 2.0 0.0
2.599999999999999 2.0 0.0
2.399999999999999 2.0 0.0
2.199999999999999 2.0 0.0
2.0 2.0 0.0
1.799999999999999 2.0 0.0
1.599999999999999 2.0 0.0
1.399999999999999 2.0 0.0
1.199999999999999 2.0 0.0
0.9999999999999991 2.0 0.0
0.7999999999999998 2.0 0.0
0.5999999999999996 2.0 0.0
0.3999999999999995 2.0 0.0
0.1999999999999993 2.0 0.0
0.0 1.799999999999167 0.0
0.0 1.6 0.0
0.0 1.400000000001387 0.0
0.0 1.200000000002774 0.0
0.0 1.000000000004117 0.0
0.0 0.8000000000033287 0.0
0.0 0.6000000000024965 0.0
0.0 0.4000000000016644 0.0
0.0 0.200000000000832 0.0
1.499207686858938 0.9671416246672391 0.0
2.690335006295381 0.9619521672166851 0.0
3.892537609238439 1.007271393615351 0.0
8.916602958236062 0.9848120741100651 0.0
7.714518201951718 1.024234589865042 0.0
6.514518201951581 1.024234589865268 0.0
5.299999999999998 1.000000000000349 0.0
0.7620577975594133 1.201991596673393 0.0
4.61755859746166 1.240410629378135 0.0
2.099999999996533 0.6749999999988996 0.0
3.289480163184942 0.6802242156869155 0.0
8.299999999999976 1.325000000000064 0.0
7.110519836808121 1.319775784312006 0.0
5.893184537067197 1.292851873188582 0.0
3.268568008578649 1.341967835735878 0.0
2.118368267083699 1.321829331075689 0.0
5.930896443153832 0.6493414313150682 0.0
7.106926174231782 0.6329785805444448 0.0
8.306926174233002 0.6329785805444098 0.0
4.427960725065653 0.6389803625370323 0.0
0.9828791719046732 0.6520555711814596 0.0
9.383333333333349 0.6166666666667164 0.0
9.383333333333326 1.383333333333367 0.0
4.974443803660211 0.5526668589022862 0.0
1.248084267804327 1.464555585366204 0.0
4.139486343919472 1.468449088519687 0.0
5.077806736162063 1.478342020848787 0.0
1.629462398503482 0.5098631373669138 0.0
2.579462070540726 0.5133714280880515 0.0
3.770778974032556 0.5099482598296803 0.0
8.764748922637567 1.526880805960684 0.0
7.820537929455645 1.486628571911716 0.0
6.632254923791462 1.492045881343967 0.0
2.796478414430566 1.477149214423874 0.0
6.403521585563812 0.5228507855762514 0.0
7.603521585564883 0.5228507855756581 0.0
8.783559188644787 0.5066440811355862 0.0
0.5060338924245764 0.5082251307884346 0.0
5.451633334958382 0.4799315318847731 0.0
1.683269995544083 1.547372422998862 0.0
0.448590368789599 1.551409631210402 0.0
5.545526974704655 1.582008455135239 0.0
3.666056976948354 1.56999765613834 0.0
0.4385739326402744 0.9352922270094057 0.0
9.58170539854767 0.9922137522194456 0.0
4.93200119575972 0.9247090920592975 0.0
6.20679636316332 1.642443126922768 0.0
7.418963044745086 1.587405313446662 0.0
2.98103695524982 0.412594686552066 0.0
2.420975602092416 1.592770352831584 0.0
7.97902439790374 0.4072296471687943 0.0
6.779024397902082 0.4072296471687297 0.0
1.130444757308209 0.9859238872709168 0.0
0.8901814758011342 1.60566856081121 0.0
4.263670373274499 0.9915754392410991 0.0
3.096698167273431 1.009056907826855 0.0
6.088506433998166 0.9857489435828969 0.0
1.902225037409936 1.003483800311746 0.0
7.288506433998439 0.9857489435828686 0.0
8.498964973312972 1.005823551167602 0.0
2.307571737417198 1.008136792450924 0.0
8.100397971125554 1.000138280273345 0.0
6.900397971125225 1.000138280273792 0.0
3.499307350770321 0.9996496628144824 0.0
5.703656022566558 0.9885479657552226 0.0
4.719420624357892 1.622286409566126 0.0
4.099803549896894 0.3600308081356619 0.0
1.286100671532495 0.3637431910670685 0.0
9.120549139677793 1.655065205594329 0.0
9.11726214008418 0.3400668903113251 0.0
4.642568097328033 0.3514924793220939 0.0
9.630437629189052 0.3309104953729904 0.0
9.674493769554315 1.668196579944218 0.0
1.936458797611609 0.3337070483410596 0.0
3.461817573918652 0.3447876019040473 0.0
8.440152788772068 1.649667667046397 0.0
6.973083089482548 1.643748677366674 0.0
3.126874515006838 1.659115470008545 0.0
6.070607878384977 0.3410183041038941 0.0
7.255014454789089 0.32792256737713 0.0
8.462493615948901 0.3368393217476116 0.0
9.236261261261264 0.9276047786917867 0.0
5.885444386845415 1.667751020273455 0.0
0.8062340689595878 0.3261579034781319 0.0
2.29463843780282 0.308358158429197 0.0
8.10536156219338 1.691641841570632 0.0
4.041916759198581 0.7211683801597477 0.0
1.324377365289917 0.710525897087282 0.0
9.023167917315867 1.292262965009952 0.0
2.044244009166302 1.693807225416931 0.0
0.7675765545556328 0.8969765944392112 0.0
2.86965991063896 0.7069213925303978 0.0
6.330340089355722 1.293078607468788 0.0
7.530340089355831 1.29307860746885 0.0
2.509347777214458 1.27231292939881 0.0
7.890652222779963 0.7276870706009825 0.0
6.690652222780154 0.7276870706013264 0.0
4.380959112578968 1.65866292149053 0.0
0.3278422400819535 1.233362752678148 0.0
5.754468991464942 0.3469215055361071 0.0
9.69195804401614 0.7000195364707393 0.0
9.691250997975434 1.303243780084337 0.0
5.54324561063747 1.237401556904767 0.0
9.044596057577811 0.6843248705785732 0.0
5.208929198448351 0.3519433027337513 0.0
3.708880196230617 1.249762029554333 0.0
1.713349558540635 1.234899745098077 0.0
4.586522821995393 0.9261740906803194 0.0
5.241145838821565 0.7007005766013242 0.0
1.434457446926135 1.701926055218157 0.0
0.2821921707428039 0.3393165318407161 0.0
3.42846431357046 1.714274134409306 0.0
5.26283485467567 1.710141275531951 0.0
3.966530105129177 1.718376080180638 0.0
4.891301048299285 1.259923533724591 0.0
0.2787500712946937 0.6906723798523376 0.0
1.822166578929051 0.7301892210727335 0.0
8.593276160688786 1.287322908694633 0.0
2.386017956680413 0.7288816957021155 0.0
3.576911792171353 0.7225526638483954 0.0
8.013982043315597 1.271118304297217 0.0
6.82303669320588 1.277631295759485 0.0
2.891837633696712 1.215141906356511 0.0
8.708162366297856 0.7848580936429009 0.0
7.496736072543097 0.7897651325976158 0.0
6.296736072542775 0.7897651325982009 0.0
5.523181420933933 0.7588744249744506 0.0
4.725538117155759 0.6529070682798582 0.0
2.736307197014292 0.273961667653487 0.0
7.663692802980817 1.726038332346062 0.0
6.446842959287713 1.783714797320288 0.0
1.126188383272983 1.743715177525389 0.0
2.64757240694847 1.787239829472812 0.0
6.546646507559373 0.2589894635657943 0.0
7.746646507561152 0.2589894635657218 0.0
4.079302268890254 1.221431431691139 0.0
4.433746883463333 0.2983726043497702 0.0
1.032697650548726 1.318076986199429 0.0
1.309492735411376 1.208980965369829 0.0
3.896105387998365 0.2579746081881307 0.0
9.378751775005455 1.725996478164223 0.0
9.3965279828929 0.2649862374471925 0.0
1.515757555362918 0.2603060454608533 0.0
4.959097093232828 1.726144293543605 0.0
4.912501341257775 0.2529154558175828 0.0
4.342421824442713 1.285376618065631 0.0
7.023506283123107 0.293611963231815 0.0
8.215829626877609 0.2682061590942965 0.0
5.28145265730745 1.291130016052329 0.0
8.693992162747364 1.744100892812201 0.0
0.6256567126095668 1.775064851453201 0.0
0.2724967459749605 1.756941612685287 0.0
8.90781713264278 0.2741674349222226 0.0
7.184202236567151 1.709454269177068 0.0
3.212962614055919 0.2641656831057426 0.0
0.6761590188374282 0.6746441670621973 0.0
1.020489328989316 0.2487299689497893 0.0
1.485017749467193 1.402133856149482 0.0
6.734223224917944 1.790518105434539 0.0
2.657549589911705 0.7636227781082678 0.0
6.542590471647475 1.237213715285722 0.0
7.742745187066703 1.235538225115726 0.0
0.5794341726414672 0.2480285055479751 0.0
1.842901067642841 1.760146518280044 0.0
3.84389577648662 0.7524680119172447 0.0
3.061589173628368 1.407936939342627 0.0
6.144447294584154 0.5911674363009913 0.0
7.344447294585433 0.5911674362995804 0.0
8.544447294586682 0.5911674362982269 0.0
5.491507940982565 0.1734458797927824 0.0
[...]
<PointData Vectors="fields">
<DataArray type="Float64" Name="U" NumberOfComponents="3" format="ascii">
0.0 0.0 0.0
0.028990207301398056 0.0 0.0
0.0024508703807470857 -0.005341183563463153 0.0
0.014387620379736944 -0.046364258860174354 0.0
0.02637506888485741 -0.005087316942176621 0.0
0.0003177607940736153 -0.005568982619604625 0.0
0.0009312797025288182 -0.009118982964238574 0.0
0.0014818391396669924 -0.012255310887718663 0.0
0.0019397006142230393 -0.015004961285028831 0.0
0.00233908455366128 -0.017629099015613298 0.0
0.002722703572658816 -0.02015028585666487 0.0
0.003107215357097738 -0.022577246616528098 0.0
0.00352874543520063 -0.024923653334635722 0.0
0.003963442950333743 -0.027190380199869413 0.0
0.004431887804316474 -0.029352884590835102 0.0
0.004923034339155555 -0.03141026487187709 0.0
0.005457399248239892 -0.0333642885435011 0.0
0.006000224424134254 -0.0351985652716306 0.0
0.006598046328993471 -0.03691335225027029 0.0
0.007193919312088787 -0.038501751993223164 0.0
0.007839824374181919 -0.03995743653044888 0.0
0.008491163696264008 -0.04126803124584655 0.0
0.00917978687506293 -0.04244287760288121 0.0
0.009879215726063756 -0.04344291726069566 0.0
0.010589260847430537 -0.04434067297760983 0.0
0.011332278859797849 -0.04506402059184596 0.0
0.012070174991479376 -0.04562540360579258 0.0
0.01283149200174859 -0.04603479303783855 0.0
0.013580536584333286 -0.04627460101753724 0.0
0.014359384543484866 -0.046361357311693184 0.0
0.01511513640557808 -0.04628697878628812 0.0
0.015868609521299603 -0.04604733082402485 0.0
0.016617272655335677 -0.045650698068407214 0.0
0.01735570289543614 -0.0450918073989437 0.0
0.018073942686989898 -0.044383000403161975 0.0
0.01880721190395907 -0.043530737242142445 0.0
0.01950109837014776 -0.042486160192937945 0.0
0.020195480411567768 -0.04134475532699481 0.0
0.02085562835912453 -0.040055334578625305 0.0
0.02151076120332266 -0.038606039617028444 0.0
0.022125039875951942 -0.03702757563340128 0.0
0.022713989999015666 -0.03532785844649873 0.0
0.023258804141153742 -0.03347781550233287 0.0
0.023791168648713265 -0.031555399640279314 0.0
0.024282688628626422 -0.02951748245803605 0.0
0.0247571830360059 -0.027366633296344523 0.0
0.025195238585794102 -0.025111305638281584 0.0
0.025616513412010766 -0.022775555398199553 0.0
0.026002577232780863 -0.02035015313335969 0.0
0.026397784875913086 -0.017830926571069446 0.0
0.026785006518185075 -0.015220964344668655 0.0
0.027214476806583374 -0.012463178591419448 0.0
0.02768809212763024 -0.009470434948723964 0.0
0.02841918083424239 -0.005912601720032798 0.0
0.02449740612074789 -0.0020942601512735576 0.0
0.02159163352693126 -0.0032479175110474816 0.0
0.018954237679947708 -0.003986445759269748 0.0
0.016537220089302668 -0.004547556406708595 0.0
0.014192629771762602 -0.004900680135277024 0.0
0.011890544901999358 -0.005129968118762639 0.0
0.009588934693141482 -0.005267639182347378 0.0
0.007250993225494285 -0.005328820100671562 0.0
0.004870384943024306 -0.005341052956584856 0.0
0.0024490586776515716 -0.007769458669201423 0.0
0.0024554667040472197 -0.010229188959211388 0.0
0.002500569838584251 -0.012727093522388088 0.0
0.0026048144259753227 -0.015251163951417061 0.0
0.002777383440082652 -0.017765387405257477 0.0
0.003011746256248689 -0.020236367923950515 0.0
0.003309898179697376 -0.022674737058517677 0.0
0.003658533205564605 -0.025026459215053712 0.0
0.004058454993250612 -0.027290880861656368 0.0
0.004513836267967851 -0.02946525581742947 0.0
0.004989715531752882 -0.03152699808078506 0.0
0.005525567555896367 -0.03348070351613647 0.0
0.006067785373949172 -0.03531466214500225 0.0
0.006662624682572792 -0.03702294191060691 0.0
0.007276245466557743 -0.038605921600429 0.0
0.007915890033269212 -0.04005212998852684 0.0
0.00856394136964947 -0.04132589267273014 0.0
0.009248744432080996 -0.04251796193978198 0.0
0.009950947804268405 -0.04352429034128818 0.0
0.010650384850431231 -0.04438590183706888 0.0
0.011381898022932067 -0.045102822972255444 0.0
0.012137314927180162 -0.04565594860492754 0.0
0.01286718372404018 -0.04605031995782122 0.0
0.013632145178391092 -0.046289078487903805 0.0
0.01516205776825714 -0.04626581306179402 0.0
0.01590327539776755 -0.04602317945632492 0.0
0.016638327386307102 -0.04562274398488083 0.0
0.017389853400097525 -0.04507234892169294 0.0
0.01813250616784626 -0.04434280538049604 0.0
0.018869243158117 -0.04346221031361201 0.0
0.019554440376709514 -0.04243917964572525 0.0
0.020242758347203304 -0.041265996226252905 0.0
0.020904083784834694 -0.039957004429321895 0.0
0.021551548787024907 -0.038504013922380315 0.0
0.02215333112300139 -0.03688533400418093 0.0
0.02274787743188728 -0.0351911567611287 0.0
0.023298460477544414 -0.03334185889478438 0.0
0.02381632127205291 -0.0313753603172281 0.0
0.024317049351637293 -0.029296977529105102 0.0
0.02477056578947824 -0.027113111643229243 0.0
0.025167227865084393 -0.02483982851924747 0.0
0.025531021639431717 -0.022471839193957153 0.0
0.02582513769677375 -0.02003713294143658 0.0
0.026060007416379788 -0.017542682988119524 0.0
0.02622284116208115 -0.015025449276107094 0.0
0.026319937959491526 -0.012495632572864861 0.0
0.026367459412349647 -0.009992552381743784 0.0
0.026378805513712102 -0.0075211862153962954 0.0
0.023947114999214352 -0.005088557728295492 0.0
0.021556793130000668 -0.005076649572519422 0.0
0.01921216984292518 -0.005020325254820303 0.0
0.016893007869750756 -0.004889686241439656 0.0
0.014582998748427547 -0.004647377611389617 0.0
0.01222878065525642 -0.004300931369871232 0.0
0.009801219264301633 -0.0037450262374337847 0.0
0.00717737821360101 -0.002973801768015565 0.0
0.004053339761474176 -0.0016801949243807181 0.0
0.014076224826863543 -0.02388613366111069 0.0
0.014073416336693553 -0.036274935032444826 0.0
0.014391501369122213 -0.04425070015392062 0.0
0.014448176212066765 -0.01895358181992412 0.0
0.014178584809354956 -0.03264963608733125 0.0
0.014254578832508275 -0.042212894780733895 0.0
0.014369205738660774 -0.046565088304112 0.0
0.01687437299464389 -0.014567029182317018 0.0
0.01471079029002334 -0.046415935821575494 0.0
0.011318083029996416 -0.030606511299744787 0.0
0.012423648818259907 -0.04085649454671929 0.0
0.011057541986189823 -0.026365960124448907 0.0
0.01207106334647722 -0.038020149878393084 0.0
0.013428739736814924 -0.045128032586951236 0.0
0.01647310186387109 -0.040716565103846365 0.0
0.01739078518033511 -0.03076994033938249 0.0
0.01555804274802212 -0.044977970525949006 0.0
0.01705507051984 -0.038051357362990396 0.0
0.018151102489522234 -0.02634545424089915 0.0
0.013600148046459155 -0.04602681366660814 0.0
0.01050103929268321 -0.017475251005000504 0.0
0.01869209115901016 -0.012763663688832253 0.0
0.009820769535257942 -0.012928252692905647 0.0
0.014317129091107578 -0.04666047824296424 0.0
0.019568816965315587 -0.02074548000628094 0.0
0.015863343627834453 -0.04514785044432537 0.0
0.014231448776020391 -0.046638618762026525 0.0
0.009244556725110036 -0.025409563509912615 0.0
0.010365404018378663 -0.035230021288287075 0.0
0.012160102142542147 -0.043592525645514066 0.0
0.00853931689070133 -0.020784161303354053 0.0
0.009908403679461867 -0.03151305011699456 0.0
0.011532040888392025 -0.041404010723473085 0.0
0.017997792352056695 -0.03710669382909586 0.0
0.01678177182185913 -0.04275802031203946 0.0
0.018530088937856515 -0.033669828861954056 0.0
0.01987335331477505 -0.02066043292764364 0.0
0.00869302274634331 -0.010935513933361306 0.0
0.015235210014988964 -0.04623734929078955 0.0
0.02006656082137373 -0.02594036105410305 0.0
0.02096211964134167 -0.010578820882576494 0.0
0.013207322522748335 -0.046031441501558704 0.0
0.01714687305544189 -0.043032697328037973 0.0
0.013890797611667522 -0.01019566611389221 0.0
0.014222768512597891 -0.010191342019621201 0.0
0.014347834724226897 -0.0467422573055052 0.0
0.011568437142505513 -0.04370200984913609 0.0
0.009581747397683478 -0.03533035070865834 0.0
0.010211182524377553 -0.038559306605100686 0.0
0.019514879245718597 -0.03372451744987347 0.0
0.02010837126277906 -0.029886893508686344 0.0
0.018115411691051363 -0.040405837122423 0.0
0.014333343965959493 -0.01933936777246207 0.0
0.02141517328886397 -0.016210345919628392 0.0
0.01434316789870216 -0.045636619309626036 0.0
0.014431157563147176 -0.03953607866652742 0.0
0.01443615740537502 -0.044387372391555185 0.0
0.014427089717612317 -0.028502457923132857 0.0
0.014505204267225647 -0.03657768172454015 0.0
0.01429004203227074 -0.024099171694864335 0.0
0.014450272263438462 -0.032726944988955405 0.0
0.014381511250943975 -0.028640457272632883 0.0
0.014387025747645343 -0.03966199651528087 0.0
0.014363612751787139 -0.042217702121880515 0.0
0.01439680146802859 -0.045757407597488496 0.0
0.015028060553556174 -0.04644049318019095 0.0
0.012224771312494238 -0.04494899411238281 0.0
0.007256605519638998 -0.021313470497324027 0.0
0.00681515997454005 -0.01629668180210237 0.0
0.0221487324632569 -0.01639194520696341 0.0
0.013492829505237348 -0.04632787415393552 0.0
0.022425624737240444 -0.009055192450082687 0.0
0.006456104529414005 -0.009293451908894234 0.0
0.007768387192059976 -0.028810651348899645 0.0
0.010713500588867133 -0.0418563058677599 0.0
0.007507138232648853 -0.024671917209346778 0.0
0.009939061904813359 -0.038996226809104695 0.0
0.018754545283593715 -0.03962430192555044 0.0
0.016946838668653225 -0.04431147294939876 0.0
0.01960929504610428 -0.036740400106394316 0.0
0.02149681726384923 -0.02451029059521132 0.0
0.015024926248373743 -0.014794926201787063 0.0
0.012212778745733234 -0.04502585868761064 0.0
0.006360164182240555 -0.015161233734584483 0.0
0.008112398146064724 -0.03249034196289734 0.0
0.007517846652710656 -0.0284538951890274 0.0
0.013382151108125812 -0.04485063136653793 0.0
0.011258356623106291 -0.021791650898146657 0.0
0.01098981888649684 -0.017567250148258037 0.0
0.021080731120048914 -0.029902190531288758 0.0
0.013393775099140946 -0.014621337408219623 0.0
0.01221569116497912 -0.037765207290830875 0.0
0.012990266115691197 -0.043214885558189024 0.0
0.011925740871132259 -0.03439401762299788 0.0
0.01664978251090781 -0.03462337041950734 0.0
0.01693739384011979 -0.030864675958301287 0.0
0.016011885850026532 -0.041091612915556394 0.0
0.015896614635739367 -0.045801671995815224 0.0
0.017314648563768142 -0.00892777120714853 0.0
0.016180978877196585 -0.045447691430936 0.0
0.017629435243965045 -0.008431209852560727 0.0
0.010680684883430677 -0.008969113564112927 0.0
0.013902169061962257 -0.04613584987634521 0.0
0.01787744835466851 -0.017330261949775834 0.0
0.014865139399137152 -0.046506203372099326 0.0
0.01553678693121273 -0.04335402800794736 0.0
0.016806596231410932 -0.026355625560074314 0.0
0.014256217427482237 -0.04638478449074048 0.0
0.014629875126862577 -0.046604169437776795 0.0
0.02203490029642387 -0.022977053089173815 0.0
0.00643763388712331 -0.007368122081439872 0.0
0.018439489634301066 -0.04161115681283137 0.0
0.013686204774168959 -0.04642675065447031 0.0
0.017119748628223797 -0.044398513704180784 0.0
0.014474463561500544 -0.046683828684575775 0.0
0.011010697974539596 -0.007780776884348034 0.0
0.011682064475323143 -0.027614762655333462 0.0
0.011268383568936223 -0.022922097348541733 0.0
0.01202405392228208 -0.033473334249547466 0.0
0.01294668640907711 -0.04263538888180801 0.0
0.01178930088096996 -0.029539974858459807 0.0
0.012624238976087747 -0.040185381695881386 0.0
0.015936855188634847 -0.037940944481604476 0.0
0.016684070484795747 -0.02158634262321245 0.0
0.016147755697031613 -0.034711451434630114 0.0
0.015358446791683173 -0.043385490830997325 0.0
0.01482976520330878 -0.046176416461384845 0.0
0.014007179453482323 -0.046540919967715935 0.0
0.008670228988037558 -0.03652216341325918 0.0
0.00793120854376208 -0.03299790404846646 0.0
0.010281111954403973 -0.042380586660884664 0.0
0.02284673128553767 -0.01917910103798269 0.0
0.020774524756972158 -0.035714890624618245 0.0
0.01850672016595596 -0.04182903197896584 0.0
0.021166119038909234 -0.03220470788371863 0.0
0.01511480497421808 -0.04499218174755441 0.0
0.012867040266958982 -0.045900341534693426 0.0
0.018069726392847645 -0.01805606259010694 0.0
0.016732087068677466 -0.021545681344997913 0.0
0.011322566972190112 -0.044072714843508165 0.0
0.005841354773436986 -0.013008380355031612 0.0
0.02335801405259181 -0.012569943743055981 0.0
0.006346706990906366 -0.024048141343499925 0.0
0.014490367801482586 -0.046546726766256256 0.0
0.014113131245493906 -0.04651514610605617 0.0
0.015061774618366414 -0.04582283870551486 0.0
0.019392908848858702 -0.038586108759085774 0.0
0.02188715464857416 -0.027293448555290523 0.0
0.014070062454338238 -0.046554389207899685 0.0
0.006160389832178864 -0.021607198746729832 0.0
0.02355415527300375 -0.012835253583722457 0.0
0.023420662855187364 -0.008404145418153744 0.0
0.022781718256925886 -0.019088393032252262 0.0
0.00902195918653859 -0.0373025427335063 0.0
0.009658864063587121 -0.04019623650393831 0.0
0.010772827323765222 -0.013372437266605731 0.0
0.0055573442290935944 -0.01796302887517849 0.0
0.01870832320626526 -0.02364241569658094 0.0
0.009485489839048525 -0.040606131857630325 0.0
0.012486096780305453 -0.0359748201410356 0.0
0.013085020624108611 -0.042024388524908474 0.0
0.012278558021844665 -0.032347191326798044 0.0
0.00514391686445813 -0.011981637346124743 0.0
0.022092709075003977 -0.02768430270226432 0.0
0.01331716333799357 -0.04400278493452854 0.0
0.017139152657495552 -0.03921983371493936 0.0
0.016061673876104483 -0.04407231621535747 0.0
0.01763612511183823 -0.03604450854157365 0.0
0.01875208665337081 -0.0235695521658539 0.0
0.015876308045217478 -0.046008578413214 0.0
0.012055974518892815 -0.02465301866992358 0.0
0.019946550163066016 -0.03811760823979919 0.0
0.020798464487857018 -0.03498163617095489 0.0
0.017866937303019338 -0.04341500318829125 0.0
0.019883372023116262 -0.013517739870984391 0.0
0.012077728254245558 -0.012896634275236149 0.0
0.012497845740773974 -0.045581250209734615 0.0
0.016045337482821057 -0.044105998369214125 0.0
0.007598512011159897 -0.03447940468020449 0.0
0.006842992498359913 -0.03068781059829064 0.0
0.015623851129093768 -0.04557356463027563 0.0
0.011756335988690043 -0.020677576055895527 0.0
0.019422874796454007 -0.02901982914663868 0.0
0.01642024714538065 -0.01174536385057511 0.0
0.016739764286119837 -0.04517891014558585 0.0
0.020287797770422104 -0.006978229948151166 0.0
0.010572997134980219 -0.04290903741079845 0.0
0.006299516598877818 -0.026699017049586812 0.0
0.015238549857927611 -0.046201357829025555 0.0
0.011269229299079012 -0.04423026017289409 0.0
0.016459400535466795 -0.042325656699216514 0.0
0.021652744257142975 -0.032300329008141566 0.0
0.014347981765950665 -0.04672618275653055 0.0
0.01486722793178986 -0.007763064118545087 0.0
0.013385378846417446 -0.045781503312279294 0.0
0.014079976959764831 -0.045125898257319066 0.0
0.01341680789748443 -0.026399348882049374 0.0
0.013690926799478772 -0.038035509155161615 0.0
0.013502682331249188 -0.030618928320561963 0.0
0.013774324457688118 -0.040857833322466314 0.0
0.005441532123915848 -0.01851298167305461 0.0
0.01525627297389111 -0.007393212550632624 0.0
0.01803720433040109 -0.04329443831450052 0.0
0.014385740666184888 -0.046724574342102386 0.0
0.013927469489952146 -0.04654062999873158 0.0
0.011387954037575048 -0.010272131918362607 0.0
0.023380645246558057 -0.021631941740956877 0.0
0.01823254326174577 -0.028837628355514868 0.0
0.018218156908111877 -0.0326222494554286 0.0
0.016966327100416484 -0.03975069668109241 0.0
0.011327850444174151 -0.036317479185681595 0.0
0.011744694325900399 -0.039417779946204975 0.0
0.012857945000612197 -0.044312838511067626 0.0
0.006590736013294554 -0.03061798515357513 0.0
0.00596636237352115 -0.026397742760249854 0.0
0.011990694463809801 -0.04263616182516336 0.0
0.01033407203347855 -0.033512086017678626 0.0
0.01080085566695504 -0.036989485637279156 0.0
0.01659147633867857 -0.028600579645039266 0.0
0.016119208537184553 -0.012153272864162411 0.0
0.008558669466543807 -0.00766035164521494 0.0
0.019865690151400137 -0.00658045859180016 0.0
0.015081298794194006 -0.04082876700983321 0.0
0.015475676617124904 -0.03078742454527999 0.0
0.014786804847790127 -0.04504543202999042 0.0
0.015273694574277522 -0.03798284664525903 0.0
0.015607442363280741 -0.0262090286780912 0.0
0.02229994357972688 -0.02542524710326829 0.0
0.008699630173618866 -0.005962280572396797 0.0
0.01822981305494584 -0.03550777913735273 0.0
0.017063706921802365 -0.04168308981465349 0.0
0.018730111689871858 -0.03186085519771576 0.0
0.013544351054673175 -0.034564914438489074 0.0
0.013857424908161588 -0.04105974282222257 0.0
0.013469714844475147 -0.030733706563214298 0.0
0.015688533248553974 -0.04610394067653899 0.0
0.013905860147145687 -0.0433594883428703 0.0
0.010178671925675727 -0.03226296239974457 0.0
0.009790113579734796 -0.028190251432164498 0.0
0.017005810818251366 -0.04488994751403518 0.0
0.014763243030971908 -0.04654265525828179 0.0
0.01210707358420573 -0.01953599802515201 0.0
0.013458090290563569 -0.02154755291230772 0.0
0.013233888032745514 -0.016651116926156003 0.0
0.012695910966278107 -0.044739721400997086 0.0
0.013517328781140063 -0.026300154710133195 0.0
0.0076184138880621 -0.034523264310588594 0.0
0.00847447123734334 -0.03784420995544903 0.0
0.014439881662816137 -0.04657790945479315 0.0
0.02176936948069278 -0.030330060994251413 0.0
0.019128743267633013 -0.04064827813806848 0.0
0.011126750087021521 -0.0406497259769389 0.0
0.010572056184999108 -0.037744970758872676 0.0
0.009270590393796864 -0.022260414600730617 0.0
0.02421585917872847 -0.006027822003578232 0.0
0.005001423423422151 -0.007896222441114842 0.0
0.015222073662749127 -0.01652195111727618 0.0
0.014985987085649513 -0.04573918491773525 0.0
0.01408768773739031 -0.04505295911308795 0.0
0.013779370903887046 -0.04556927297369201 0.0
0.012718503307107103 -0.007620460735287166 0.0
0.012934176841660337 -0.046049592664112925 0.0
0.02368606805937118 -0.016566972697259888 0.0
0.013688007876915074 -0.021525145148430326 0.0
0.018952558942456264 -0.011343751595748396 0.0
0.01310941884792717 -0.04538468847190729 0.0
0.013898349522636855 -0.037993813200198484 0.0
0.014056429007996665 -0.0434487680829407 0.0
0.013814181616879159 -0.0347960507982509 0.0
0.00938158464928043 -0.019878202868189334 0.0
0.009560336706946003 -0.02764398242207913 0.0
0.009232666806757162 -0.023123885402795686 0.0
0.01191854807174517 -0.04260664461506328 0.0
0.01132206659474376 -0.04011673845026721 0.0
0.014598373980885902 -0.046151641696369566 0.0
0.011525303132043179 -0.04481542026847471 0.0
0.01989555666117748 -0.018587148728994585 0.0
0.020114165372024283 -0.02635309080689801 0.0
0.018407737502253996 -0.0380164242741176 0.0
0.013928804128408613 -0.04575244152339534 0.0
0.016151303368422534 -0.04503415651478622 0.0
0.004846357954262981 -0.02175676231811844 0.0
0.008809309218018212 -0.018072975104087452 0.0
0.00924788010828965 -0.015543582127568888 0.0
0.016715174500302025 -0.023743206367586724 0.0
0.015853355203676874 -0.03930168261571775 0.0
0.016173549490042884 -0.036256062321011896 0.0
0.015287593285386415 -0.04419575525300436 0.0
0.01774602008036457 -0.040986637709211265 0.0
0.013077346874561021 -0.03945970111473819 0.0
0.013643752843709422 -0.04433156342714076 0.0
0.012889494945819296 -0.03640645441543791 0.0
0.0235588584714701 -0.010550423035614485 0.0
0.01429811888648149 -0.04626191655158401 0.0
0.01671584819964595 -0.03641322022304528 0.0
0.016936591110172806 -0.03317544516797893 0.0
0.01588747220865758 -0.04250279565349771 0.0
0.015452655978402405 -0.042105339139639986 0.0
0.010535242674943426 -0.04322291870561041 0.0
0.014655991335966238 -0.04660816016492964 0.0
0.01575741945912622 -0.039495724490081874 0.0
0.016400215974212273 -0.02841751136677928 0.0
0.0163399818256155 -0.01917401214819941 0.0
0.019206468537362062 -0.040474666098122544 0.0
0.008962108827247097 -0.010566260277670781 0.0
0.019485000205874067 -0.010008202211563587 0.0
0.021235892320047123 -0.03425596331007378 0.0
0.008006810822407081 -0.017538850868794788 0.0
0.013293824623988074 -0.04608569861242528 0.0
0.01972406704439727 -0.01521501887425968 0.0
0.019131141525101026 -0.01561028199265461 0.0