<VTKFile type="UnstructuredGrid"  version="0.1">
<UnstructuredGrid>
<Piece NumberOfPoints="713" NumberOfCells="1304">
<Points>
<DataArray type="Float64" NumberOfComponents="3" format="ascii">
0.0 0.0 0.0
10.0 0.0 0.0
10.0 2.0 0.0
5.0 2.0 0.0
0.0 2.0 0.0
0.199999999999856 0.0 0.0
0.3999999999996677 0.0 0.0
0.5999999999994683 0.0 0.0
0.7999999999993286 0.0 0.0
0.9999999999991888 0.0 0.0
1.199999999999033 0.0 0.0
1.399999999998576 0.0 0.0
1.599999999997992 0.0 0.0
1.799999999997408 0.0 0.0
1.999999999996825 0.0 0.0
2.199999999996241 0.0 0.0
2.399999999995657 0.0 0.0
2.599999999995073 0.0 0.0
2.79999999999449 0.0 0.0
2.999999999993906 0.0 0.0
3.199999999993322 0.0 0.0
3.399999999992738 0.0 0.0
3.599999999992154 0.0 0.0
3.799999999991571 0.0 0.0
3.999999999991022 0.0 0.0
4.199999999991187 0.0 0.0
4.399999999991491 0.0 0.0
4.599999999991795 0.0 0.0
4.799999999992099 0.0 0.0
4.999999999992403 0.0 0.0
5.199999999992706 0.0 0.0
5.39999999999301 0.0 0.0
5.599999999993313 0.0 0.0
5.799999999993618 0.0 0.0
5.999999999993922 0.0 0.0
6.199999999994227 0.0 0.0
6.39999999999453 0.0 0.0
6.599999999994833 0.0 0.0
6.799999999995138 0.0 0.0
6.999999999995442 0.0 0.0
7.199999999995747 0.0 0.0
7.39999999999605 0.0 0.0
7.599999999996353 0.0 0.0
7.799999999996658 0.0 0.0
7.999999999996962 0.0 0.0
8.199999999997265 0.0 0.0
8.399999999997569 0.0 0.0
8.599999999997873 0.0 0.0
8.799999999998176 0.0 0.0
8.99999999999848 0.0 0.0
9.199999999998786 0.0 0.0
9.399999999999089 0.0 0.0
9.599999999999392 0.0 0.0
9.799999999999697 0.0 0.0
10.0 0.1999999999996293 0.0
10.0 0.3999999999991157 0.0
10.0 0.5999999999985328 0.0
10.0 0.7999999999979498 0.0
10.0 0.9999999999973885 0.0
10.0 1.199999999997894 0.0
10.0 1.39999999999842 0.0
10.0 1.599999999998947 0.0
10.0 1.799999999999474 0.0
9.799999999999999 2.0 0.0
9.6 2.0 0.0
9.399999999999999 2.0 0.0
9.2 2.0 0.0
8.999999999999998 2.0 0.0
8.799999999999999 2.0 0.0
8.599999999999998 2.0 0.0
8.399999999999999 2.0 0.0
8.2 2.0 0.0
7.999999999999998 2.0 0.0
7.799999999999999 2.0 0.0
7.599999999999999 2.0 0.0
7.399999999999999 2.0 0.0
7.199999999999999 2.0 0.0
7.0 2.0 0.0
6.799999999999999 2.0 0.0
6.6 2.0 0.0
6.399999999999999 2.0 0.0
6.199999999999999 2.0 0.0
5.999999999999999 2.0 0.0
5.8 2.0 0.0
5.6 2.0 0.0
5.399999999999999 2.0 0.0
5.199999999999999 2.0 0.0
4.8 2.0 0.0
4.6 2.0 0.0
4.399999999999999 2.0 0.0
4.199999999999998 2.0 0.0
3.999999999999999 2.0 0.0
3.799999999999999 2.0 0.0
3.599999999999999 2.0 0.0
3.399999999999999 2.0 0.0
3.199999999999998 2.0 0.0
2.999999999999999 2.0 0.0
2.799999999999999 2.0 0.0
2.599999999999999 2.0 0.0
2.399999999999999 2.0 0.0
2.199999999999999 2.0 0.0
2.0 2.0 0.0
1.799999999999999 2.0 0.0
1.599999999999999 2.0 0.0
1.399999999999999 2.0 0.0
1.199999999999999 2.0 0.0
0.9999999999999991 2.0 0.0
0.7999999999999998 2.0 0.0
0.5999999999999996 2.0 0.0
0.3999999999999995 2.0 0.0
0.1999999999999993 2.0 0.0
0.0 1.799999999999167 0.0
0.0 1.6 0.0
0.0 1.400000000001387 0.0
0.0 1.200000000002774 0.0
0.0 1.000000000004117 0.0
0.0 0.8000000000033287 0.0
0.0 0.6000000000024965 0.0
0.0 0.4000000000016644 0.0
0.0 0.200000000000832 0.0
1.499207686858938 0.9671416246672391 0.0
2.690335006295381 0.9619521672166851 0.0
3.892537609238439 1.007271393615351 0.0
8.916602958236062 0.9848120741100651 0.0
7.714518201951718 1.024234589865042 0.0
6.514518201951581 1.024234589865268 0.0
5.299999999999998 1.000000000000349 0.0
0.7620577975594133 1.201991596673393 0.0
4.61755859746166 1.240410629378135 0.0
2.099999999996533 0.6749999999988996 0.0
3.289480163184942 0.6802242156869155 0.0
8.299999999999976 1.325000000000064 0.0
7.110519836808121 1.319775784312006 0.0
5.893184537067197 1.292851873188582 0.0
3.268568008578649 1.341967835735878 0.0
2.118368267083699 1.321829331075689 0.0
5.930896443153832 0.6493414313150682 0.0
7.106926174231782 0.6329785805444448 0.0
8.306926174233002 0.6329785805444098 0.0
4.427960725065653 0.6389803625370323 0.0
0.9828791719046732 0.6520555711814596 0.0
9.383333333333349 0.6166666666667164 0.0
9.383333333333326 1.383333333333367 0.0
4.974443803660211 0.5526668589022862 0.0
1.248084267804327 1.464555585366204 0.0
4.139486343919472 1.468449088519687 0.0
5.077806736162063 1.478342020848787 0.0
1.629462398503482 0.5098631373669138 0.0
2.579462070540726 0.5133714280880515 0.0
3.770778974032556 0.5099482598296803 0.0
8.764748922637567 1.526880805960684 0.0
7.820537929455645 1.486628571911716 0.0
6.632254923791462 1.492045881343967 0.0
2.796478414430566 1.477149214423874 0.0
6.403521585563812 0.5228507855762514 0.0
7.603521585564883 0.5228507855756581 0.0
8.783559188644787 0.5066440811355862 0.0
0.5060338924245764 0.5082251307884346 0.0
5.451633334958382 0.4799315318847731 0.0
1.683269995544083 1.547372422998862 0.0
0.448590368789599 1.551409631210402 0.0
5.545526974704655 1.582008455135239 0.0
3.666056976948354 1.56999765613834 0.0
0.4385739326402744 0.9352922270094057 0.0
9.58170539854767 0.9922137522194456 0.0
4.93200119575972 0.9247090920592975 0.0
6.20679636316332 1.642443126922768 0.0
7.418963044745086 1.587405313446662 0.0
2.98103695524982 0.412594686552066 0.0
2.420975602092416 1.592770352831584 0.0
7.97902439790374 0.4072296471687943 0.0
6.779024397902082 0.4072296471687297 0.0
1.130444757308209 0.9859238872709168 0.0
0.8901814758011342 1.60566856081121 0.0
4.263670373274499 0.9915754392410991 0.0
3.096698167273431 1.009056907826855 0.0
6.088506433998166 0.9857489435828969 0.0
1.902225037409936 1.003483800311746 0.0
7.288506433998439 0.9857489435828686 0.0
8.498964973312972 1.005823551167602 0.0
2.307571737417198 1.008136792450924 0.0
8.100397971125554 1.000138280273345 0.0
6.900397971125225 1.000138280273792 0.0
3.499307350770321 0.9996496628144824 0.0
5.703656022566558 0.9885479657552226 0.0
4.719420624357892 1.622286409566126 0.0
4.099803549896894 0.3600308081356619 0.0
1.286100671532495 0.3637431910670685 0.0
9.120549139677793 1.655065205594329 0.0
9.11726214008418 0.3400668903113251 0.0
4.642568097328033 0.3514924793220939 0.0
9.630437629189052 0.3309104953729904 0.0
9.674493769554315 1.668196579944218 0.0
1.936458797611609 0.3337070483410596 0.0
3.461817573918652 0.3447876019040473 0.0
8.440152788772068 1.649667667046397 0.0
6.973083089482548 1.643748677366674 0.0
3.126874515006838 1.659115470008545 0.0
6.070607878384977 0.3410183041038941 0.0
7.255014454789089 0.32792256737713 0.0
8.462493615948901 0.3368393217476116 0.0
9.236261261261264 0.9276047786917867 0.0
5.885444386845415 1.667751020273455 0.0
0.8062340689595878 0.3261579034781319 0.0
2.29463843780282 0.308358158429197 0.0
8.10536156219338 1.691641841570632 0.0
4.041916759198581 0.7211683801597477 0.0
1.324377365289917 0.710525897087282 0.0
9.023167917315867 1.292262965009952 0.0
2.044244009166302 1.693807225416931 0.0
0.7675765545556328 0.8969765944392112 0.0
2.86965991063896 0.7069213925303978 0.0
6.330340089355722 1.293078607468788 0.0
7.530340089355831 1.29307860746885 0.0
2.509347777214458 1.27231292939881 0.0
7.890652222779963 0.7276870706009825 0.0
6.690652222780154 0.7276870706013264 0.0
4.380959112578968 1.65866292149053 0.0
0.3278422400819535 1.233362752678148 0.0
5.754468991464942 0.3469215055361071 0.0
9.69195804401614 0.7000195364707393 0.0
9.691250997975434 1.303243780084337 0.0
5.54324561063747 1.237401556904767 0.0
9.044596057577811 0.6843248705785732 0.0
5.208929198448351 0.3519433027337513 0.0
3.708880196230617 1.249762029554333 0.0
1.713349558540635 1.234899745098077 0.0
4.586522821995393 0.9261740906803194 0.0
5.241145838821565 0.7007005766013242 0.0
1.434457446926135 1.701926055218157 0.0
0.2821921707428039 0.3393165318407161 0.0
3.42846431357046 1.714274134409306 0.0
5.26283485467567 1.710141275531951 0.0
3.966530105129177 1.718376080180638 0.0
4.891301048299285 1.259923533724591 0.0
0.2787500712946937 0.6906723798523376 0.0
1.822166578929051 0.7301892210727335 0.0
8.593276160688786 1.287322908694633 0.0
2.386017956680413 0.7288816957021155 0.0
3.576911792171353 0.7225526638483954 0.0
8.013982043315597 1.271118304297217 0.0
6.82303669320588 1.277631295759485 0.0
2.891837633696712 1.215141906356511 0.0
8.708162366297856 0.7848580936429009 0.0
7.496736072543097 0.7897651325976158 0.0
6.296736072542775 0.7897651325982009 0.0
5.523181420933933 0.7588744249744506 0.0
4.725538117155759 0.6529070682798582 0.0
2.736307197014292 0.273961667653487 0.0
7.663692802980817 1.726038332346062 0.0
6.446842959287713 1.783714797320288 0.0
1.126188383272983 1.743715177525389 0.0
2.64757240694847 1.787239829472812 0.0
6.546646507559373 0.2589894635657943 0.0
7.746646507561152 0.2589894635657218 0.0
4.079302268890254 1.221431431691139 0.0
4.433746883463333 0.2983726043497702 0.0
1.032697650548726 1.318076986199429 0.0
1.309492735411376 1.208980965369829 0.0
3.896105387998365 0.2579746081881307 0.0
9.378751775005455 1.725996478164223 0.0
9.3965279828929 0.2649862374471925 0.0
1.515757555362918 0.2603060454608533 0.0
4.959097093232828 1.726144293543605 0.0
4.912501341257775 0.2529154558175828 0.0
4.342421824442713 1.285376618065631 0.0
7.023506283123107 0.293611963231815 0.0
8.215829626877609 0.2682061590942965 0.0
5.28145265730745 1.291130016052329 0.0
8.693992162747364 1.744100892812201 0.0
0.6256567126095668 1.775064851453201 0.0
0.2724967459749605 1.756941612685287 0.0
8.90781713264278 0.2741674349222226 0.0
7.184202236567151 1.709454269177068 0.0
3.212962614055919 0.2641656831057426 0.0
0.6761590188374282 0.6746441670621973 0.0
1.020489328989316 0.2487299689497893 0.0
1.485017749467193 1.402133856149482 0.0
6.734223224917944 1.790518105434539 0.0
2.657549589911705 0.7636227781082678 0.0
6.542590471647475 1.237213715285722 0.0
7.742745187066703 1.235538225115726 0.0
0.5794341726414672 0.2480285055479751 0.0
1.842901067642841 1.760146518280044 0.0
3.84389577648662 0.7524680119172447 0.0
3.061589173628368 1.407936939342627 0.0
6.144447294584154 0.5911674363009913 0.0
7.344447294585433 0.5911674362995804 0.0
8.544447294586682 0.5911674362982269 0.0
5.491507940982565 0.1734458797927824 0.0
[...]
<PointData Vectors="fields">
<DataArray type="Float64" Name="U" NumberOfComponents="3" format="ascii">
0.0 0.0 0.0
0.027243177941197926 0.0 0.0
0.002325228490414628 -0.005044081198651352 0.0
0.013535456080282709 -0.04345000208571093 0.0
0.024868328081941806 -0.0047312653926829505 0.0
0.0002970313923679026 -0.0052095847219675445 0.0
0.0008660512413208 -0.008545764497032577 0.0
0.001377274703920568 -0.011499977288240605 0.0
0.0018043836391115249 -0.014094231090367917 0.0
0.0021793951726796087 -0.016571270238859348 0.0
0.00254235988355846 -0.01895105317574332 0.0
0.002908436591422405 -0.02124108834940526 0.0
0.0033119728115343487 -0.02345385632123817 0.0
0.0037296271096405164 -0.02559025187485225 0.0
0.004181854624604979 -0.027626279830482162 0.0
0.004657630719163398 -0.029560807522569035 0.0
0.005176575200026555 -0.03139582142122432 0.0
0.005704587436397703 -0.03311526940352748 0.0
0.006285604532925492 -0.03471955416835405 0.0
0.006863122588408562 -0.0362020934554341 0.0
0.007485695442965144 -0.037557053219177364 0.0
0.00810851625761957 -0.038772975497782414 0.0
0.008761559551473952 -0.039859996223311274 0.0
0.009418280518330824 -0.04078190258717505 0.0
0.010080821726570538 -0.04160802661070975 0.0
0.010768698009669252 -0.04227119247835637 0.0
0.011448560267757493 -0.042784419316253326 0.0
0.0121484008247745 -0.04315720180482118 0.0
0.012836674993581048 -0.04337345066393176 0.0
0.013553515552801916 -0.043448791245053076 0.0
0.014250565192480897 -0.04337542613039724 0.0
0.014947203891072788 -0.04314922266188482 0.0
0.015640616510927317 -0.042777774075545595 0.0
0.016325015434918592 -0.04225592479919191 0.0
0.01699040159990165 -0.04159497074681676 0.0
0.017669436359919626 -0.04080092576465023 0.0
0.01831181455494502 -0.03982769957519453 0.0
0.018955490184218552 -0.0387641269204825 0.0
0.019569008970744182 -0.037562243612000175 0.0
0.020180975940375538 -0.036209967985808326 0.0
0.020757670975919868 -0.034735884563902315 0.0
0.02131305258823067 -0.03314719113671937 0.0
0.021828762327425075 -0.03141592041688546 0.0
0.022333095904076606 -0.02961608895754137 0.0
0.022798428766788587 -0.02770686407133723 0.0
0.02324662191909625 -0.025691081873825638 0.0
0.02365906838112849 -0.0235769478794332 0.0
0.02405452779706261 -0.021387605689041956 0.0
0.024415966515785384 -0.01911453928528468 0.0
0.024785611152101594 -0.01675404672697762 0.0
0.02514804737662528 -0.01430935420247019 0.0
0.025551389024109826 -0.011726493060516641 0.0
0.025998261621282933 -0.008923258043075224 0.0
0.026692767619612333 -0.005585887068159814 0.0
0.02301207241096794 -0.00199862489795167 0.0
0.02028888591734418 -0.003088716963932554 0.0
0.01781414591496403 -0.0037807604031907765 0.0
0.015544304305857083 -0.004303496293630844 0.0
0.013341380279789724 -0.004631270005188599 0.0
0.01117901702001569 -0.004844560975806841 0.0
0.009018617798057573 -0.004973799038606049 0.0
0.006825734583762157 -0.005031797736965127 0.0
0.004593714929177322 -0.005043791505988058 0.0
0.0023236248295116836 -0.007320952097499526 0.0
0.0023300620300616796 -0.00962736077647672 0.0
0.0023731726254706065 -0.011969140726892665 0.0
0.0024721213272270257 -0.01433503929149621 0.0
0.0026354381604055265 -0.016691284910487457 0.0
0.0028572494718935955 -0.01900678840550582 0.0
0.003139478987877449 -0.02129201731823585 0.0
0.0034700351723366096 -0.0234960097898639 0.0
0.0038498976007216618 -0.025617978506982747 0.0
0.0042829140364583325 -0.027655469605822974 0.0
0.004735898100056318 -0.029586516519688112 0.0
0.005245736866399767 -0.03141551586435907 0.0
0.0057610931046667285 -0.0331311213445285 0.0
0.00632514856333076 -0.034727798269286916 0.0
0.006905253454207165 -0.03620611309633601 0.0
0.007507926527573825 -0.037555592300125444 0.0
0.008116299263704538 -0.03874281556293878 0.0
0.00875771582565825 -0.03985404912251136 0.0
0.009413628864105603 -0.04079164555607555 0.0
0.010065812999102171 -0.04159457879210954 0.0
0.010746974881673272 -0.04226315890206047 0.0
0.011449480356530924 -0.0427798991443347 0.0
0.012127202498067582 -0.04314957755601877 0.0
0.012836331999925888 -0.04337532466997236 0.0
0.014250975892420546 -0.04336435028607202 0.0
0.014934934584554936 -0.0431458581981677 0.0
0.015612690431115937 -0.042781547093408354 0.0
0.016306085741353275 -0.042278756494842834 0.0
0.0169928248977905 -0.041609771444702855 0.0
0.017676935528192276 -0.040799940233623835 0.0
0.018316412109256937 -0.039856550365696436 0.0
0.018963785619221386 -0.03877117471375724 0.0
0.01959057666094489 -0.03755692405412867 0.0
0.020209330477304163 -0.03620496093615794 0.0
0.020789048126516326 -0.034693596646342334 0.0
0.021363346739102507 -0.033109363551942605 0.0
0.021896764848544404 -0.03137579597514449 0.0
0.022398713122613358 -0.029529147900424595 0.0
0.022883662377011574 -0.02757461542983403 0.0
0.023322317500328926 -0.025518609627094464 0.0
0.02370552586859945 -0.023376401671062606 0.0
0.02405653822283917 -0.021142840874582257 0.0
0.024339896280841343 -0.01884517467009864 0.0
0.024565857659357156 -0.016490090013984438 0.0
0.02472228695822804 -0.014113306380633087 0.0
0.02481542715456203 -0.011724470521904212 0.0
0.024860948738244338 -0.009361293741800185 0.0
0.02487189023411495 -0.007028379631776773 0.0
0.02257688343941222 -0.004732407859925186 0.0
0.020321301040592966 -0.004720939186459541 0.0
0.01810899668986937 -0.004667195514189687 0.0
0.015920274029224354 -0.00454325089492952 0.0
0.013739485886177223 -0.00431469506339621 0.0
0.0115158251548427 -0.003990091472351914 0.0
0.009222442440262288 -0.0034717809545503015 0.0
0.0067450238374580015 -0.0027559576323299834 0.0
0.0038022965751847216 -0.001557040633829904 0.0
0.013258363667647526 -0.022483820388593607 0.0
0.01325731780491091 -0.03413976206659248 0.0
0.013559282749822132 -0.041536716809513555 0.0
0.01357919348265859 -0.017808619590856507 0.0
0.013334359138813874 -0.030649023454191484 0.0
0.013418621197221058 -0.03957842230818852 0.0
0.013536624524932527 -0.04363713110677282 0.0
0.015902780841431485 -0.0136829533041696 0.0
0.013849240661478045 -0.04351403686771354 0.0
0.010663267675148622 -0.028815777652525562 0.0
0.01173823820721799 -0.03840696301944055 0.0
0.010402245947714266 -0.02475770841208233 0.0
0.011375578150016349 -0.035668949379847964 0.0
0.01265516711377438 -0.04229335420292026 0.0
0.015481926331755786 -0.03827606318178542 0.0
0.01637275527504734 -0.028969980493914582 0.0
0.014641514565288685 -0.04215405181310796 0.0
0.016024090926728542 -0.035699191855739956 0.0
0.017056147967381245 -0.024738668520288543 0.0
0.012841329060500329 -0.0431592652166138 0.0
0.009885661120110925 -0.01642974217184794 0.0
0.017564603899747733 -0.012009872181765349 0.0
0.009235010380273936 -0.012159524085684204 0.0
0.013500607827313776 -0.04373071645421927 0.0
0.018438927369644743 -0.01951840584406973 0.0
0.014906643798618117 -0.04235574116094132 0.0
0.013401967605367288 -0.04370764426516239 0.0
0.008702681323545637 -0.023918210674632786 0.0
0.009786761302532598 -0.033157298100540106 0.0
0.011513587337399867 -0.040929733248021766 0.0
0.008035897449778414 -0.019523301217287528 0.0
0.009337008259778994 -0.029581037344998243 0.0
0.010881732576683893 -0.038822709336407274 0.0
0.016916385339929958 -0.03491335436563629 0.0
0.015775674347849218 -0.04008488907786502 0.0
0.017405778652405442 -0.031602672203144624 0.0
0.01867155705075547 -0.01940786654639027 0.0
0.008178317215807508 -0.010256107150565894 0.0
0.014348879131168155 -0.04332952158098263 0.0
0.01889893293461788 -0.024419756341438295 0.0
0.019760324124533823 -0.009915166063760287 0.0
0.01244930100376233 -0.04313482253272768 0.0
0.01609303553134889 -0.04041229809612671 0.0
0.013087025850356166 -0.009554700688949556 0.0
0.013368788634226133 -0.009596516470062776 0.0
0.013520448643691592 -0.043808170515720245 0.0
0.010920400906430996 -0.040961888707543706 0.0
0.009044121003690585 -0.03315278959267014 0.0
0.009669716188783095 -0.036267504070068936 0.0
0.01835274059374623 -0.0317440971139077 0.0
0.01888841663673156 -0.028057805388028885 0.0
0.01701393753389024 -0.037892982976736996 0.0
0.013502774224754602 -0.01819142061338601 0.0
0.02018486227981685 -0.015234134427285126 0.0
0.0135159409207471 -0.042804755239148666 0.0
0.013592913856150935 -0.037182888816075885 0.0
0.013592312535824916 -0.041603885069305444 0.0
0.013587675011099639 -0.026835905318520453 0.0
0.013643947899442047 -0.03432378215602773 0.0
0.013432043131799864 -0.022632761678880987 0.0
0.013609032142516776 -0.03081111932257522 0.0
0.013520765099128787 -0.026891535306758477 0.0
0.013537701214395782 -0.03720203093405502 0.0
0.013532154856496873 -0.03966705974973379 0.0
0.013559335215684254 -0.04288148717086127 0.0
0.014135319795498438 -0.043532291297149646 0.0
0.011582608274766619 -0.042172278460979686 0.0
0.006823090828669193 -0.020052244215768504 0.0
0.0064176611701614455 -0.01531635167995486 0.0
0.02080447011394096 -0.015407918586120065 0.0
0.012748676965766939 -0.04342994082050097 0.0
0.021065239562378175 -0.008536431442926078 0.0
0.006080119710347936 -0.00875020922887943 0.0
0.007318770777348946 -0.027122000000537428 0.0
0.010168400210655015 -0.03932711697980497 0.0
0.00707389791010986 -0.02316729904857693 0.0
0.009390487285813508 -0.03657631237422616 0.0
0.017600835933488202 -0.037256418684163184 0.0
0.015936666713224086 -0.041531218482349586 0.0
0.018409033046796124 -0.034472364902134275 0.0
0.020193535728404204 -0.02301623049996212 0.0
0.014121318951106769 -0.013911601003012055 0.0
0.011522228812192116 -0.04219528038396986 0.0
0.005976140843831867 -0.014243348990708586 0.0
0.0076592908531065255 -0.03058292893556268 0.0
0.007092027041157126 -0.026712125416299696 0.0
0.012638145683529861 -0.04208571220003006 0.0
0.01060053866946099 -0.020505983794144925 0.0
0.010332070469909969 -0.016508534789985253 0.0
0.01983980589567511 -0.028150262528444655 0.0
0.01261745663104792 -0.013734702866047534 0.0
0.01152839154456693 -0.03553193748865139 0.0
0.012243249713551998 -0.04051084095168383 0.0
0.01123077578586184 -0.03228049325956191 0.0
0.01566874453836101 -0.032590718350087956 0.0
0.015917177057469357 -0.028976379080622443 0.0
0.015053849836354955 -0.03853371990762045 0.0
0.014934911370080644 -0.042951255991833824 0.0
0.016319220710749604 -0.008355960654687206 0.0
0.015227854971452957 -0.04259090432899469 0.0
0.0165687886997876 -0.00794976426252478 0.0
0.010042438447319666 -0.008447024761624974 0.0
0.013098362214180502 -0.04323430505860657 0.0
0.01679925412382249 -0.016287488025174726 0.0
0.01401053859296495 -0.043582071441990146 0.0
0.014610454630732739 -0.04071214652502715 0.0
0.015829644039509275 -0.024812930704925254 0.0
0.013437258590345398 -0.04348612167321453 0.0
0.013784237410934421 -0.043674132087279355 0.0
0.020759226653707417 -0.021623252957525162 0.0
0.00604896160201111 -0.006896308628894382 0.0
0.017293735990510876 -0.03909753208240459 0.0
0.012892524205994325 -0.04350534643043024 0.0
0.016062333762012493 -0.04166616299793603 0.0
0.013630806498472993 -0.04375471604811744 0.0
0.01036614564684598 -0.007277793250123818 0.0
0.011002118123943708 -0.025998583212047677 0.0
0.01059604961946637 -0.021528579681849038 0.0
0.011333114933779713 -0.03151138744882489 0.0
0.01223005120311671 -0.04005127125081524 0.0
0.011092992661371242 -0.02773385264794598 0.0
0.011896361813740835 -0.03768876226128103 0.0
0.014994056283158693 -0.035695717885529485 0.0
0.015678977744228714 -0.020276422530392666 0.0
0.01517742172814618 -0.0325788910766754 0.0
0.014449814254916713 -0.040670292322829774 0.0
0.013966442543880962 -0.043273016814162235 0.0
0.013214039052139177 -0.04362617226706478 0.0
0.00821434597634383 -0.03436220326530184 0.0
0.007493284470222281 -0.030968402646448498 0.0
0.009718986936725012 -0.039729282746634426 0.0
0.021531635635283163 -0.018037404812233888 0.0
0.019514476264707314 -0.03360538635760892 0.0
0.017381883695676326 -0.03921786158198473 0.0
0.01987448064304533 -0.030228040838148163 0.0
0.014221095672692039 -0.042215087274648774 0.0
0.012175416091624217 -0.04304040857203864 0.0
0.017028285728565927 -0.016978901102803756 0.0
0.015763934539751442 -0.02027486961670113 0.0
0.01075008818641177 -0.04136729968828803 0.0
0.00550422998830325 -0.0122335510144638 0.0
0.02193806070510569 -0.011828432596142564 0.0
0.005967221206872488 -0.022631962982642896 0.0
0.013636871876131296 -0.043623379326833224 0.0
0.013320575953517643 -0.04359572263046364 0.0
0.014171334981055484 -0.042973916269361555 0.0
0.018204851253075645 -0.0361951251089782 0.0
0.020557662670380665 -0.02562525442192044 0.0
0.013254974231017876 -0.0436266133928444 0.0
0.005808283480755663 -0.02029360680224364 0.0
0.02220495415624708 -0.012045799493314455 0.0
0.02208007352354924 -0.007861830134725382 0.0
0.021397765787453712 -0.017933804841188793 0.0
0.00852882011301546 -0.03499418607066866 0.0
0.009175010175222263 -0.03778683172550818 0.0
0.010142500085810236 -0.01255542555669787 0.0
0.005217748666320261 -0.016888229956177114 0.0
0.017624104489187088 -0.022253238302778543 0.0
0.00897284510025128 -0.03807547835450138 0.0
0.011773015438352756 -0.033857981143176334 0.0
0.012329187545769886 -0.03940233676489287 0.0
0.011556074230957118 -0.030364679487610464 0.0
0.004829590590757671 -0.01124292797359276 0.0
0.020799905726020387 -0.02606078799755522 0.0
0.012575584812327418 -0.04130873276379742 0.0
0.01610593561239433 -0.036884832848119976 0.0
0.015108364388546073 -0.041309601758947864 0.0
0.016567433826777014 -0.0338244301866512 0.0
0.01761994942974399 -0.02213532820583996 0.0
0.014950261253385473 -0.04311387729167401 0.0
0.011353347147974322 -0.023206460220371306 0.0
0.018720729660254124 -0.03585100900853181 0.0
0.019523653143640397 -0.03282695352423183 0.0
0.01679142118025903 -0.04069515304757554 0.0
0.018741916707674236 -0.012691099947761336 0.0
0.011353398558630897 -0.012130974674547056 0.0
0.011787784932631117 -0.04271284241920794 0.0
0.015075954015398357 -0.04140145506234938 0.0
0.007192845812658829 -0.03244780029152733 0.0
0.006467252982982607 -0.028804123244358205 0.0
0.014706446437387846 -0.0427093737111746 0.0
0.011052353697932938 -0.01942431467432194 0.0
0.018285851301949197 -0.02732140419625595 0.0
0.015475000093531158 -0.011017411446909259 0.0
0.015710452161499616 -0.04238030496811537 0.0
0.019124204565074673 -0.006515382307989129 0.0
0.010050215176897484 -0.04029589949145142 0.0
0.005928719455578239 -0.02513093996055587 0.0
0.01433113055570962 -0.04331718266625064 0.0
0.010642507111970873 -0.04145235121807113 0.0
0.015462522529236253 -0.03976329131934044 0.0
0.020362921546073845 -0.030403216799096397 0.0
0.013516740077567741 -0.04379034274526154 0.0
0.014008778219864512 -0.007256863648630979 0.0
0.012615813059392564 -0.042902388811408794 0.0
0.01326201898422313 -0.042292130375185574 0.0
0.012614161282897246 -0.024789724939726504 0.0
0.012886258622648616 -0.03568468637151187 0.0
0.012717866275297366 -0.028828345360269833 0.0
0.012986480470002544 -0.03840957665518718 0.0
0.005131998837530467 -0.017393214581799467 0.0
0.014340275698947604 -0.006973311033593152 0.0
0.016911645988171124 -0.04064993355031818 0.0
0.013558265684250632 -0.043789738473858975 0.0
0.013120031641416587 -0.043613219779455405 0.0
0.010723155489359324 -0.009628546399413105 0.0
0.021959298627366872 -0.020317145015635578 0.0
0.017131681194802392 -0.027075483834315753 0.0
0.017143895212868982 -0.030710837360816635 0.0
0.015941938357886758 -0.0372837319528565 0.0
0.010677533768735717 -0.0340780646259054 0.0
0.01110039633829744 -0.03707053968131606 0.0
0.012122107129769272 -0.04153304553827742 0.0
0.006219112327056482 -0.028820607806895288 0.0
0.0056345728797923805 -0.024783531978920807 0.0
0.01131159000352756 -0.0399706998623126 0.0
0.009740900329281543 -0.031453212865332286 0.0
0.010205353775616703 -0.03480457844707477 0.0
0.015624648510246083 -0.02692828993798322 0.0
0.015149829855093081 -0.011437037533216784 0.0
0.008051731134534201 -0.0072186346242807155 0.0
0.01866731418118526 -0.006216088904035273 0.0
0.014194585529015119 -0.03838216216924796 0.0
0.014573228616103938 -0.02898709215127829 0.0
0.013921220162566248 -0.04221733433613734 0.0
0.014362377617803455 -0.035635922526802886 0.0
0.014669454050175813 -0.024611313211181398 0.0
0.021002513302440108 -0.023932128022616895 0.0
0.008182683391886431 -0.005567574099593419 0.0
0.017142073991428895 -0.03341788235389018 0.0
0.016035540531352678 -0.039083736690120344 0.0
0.01759527162595898 -0.02990875636762119 0.0
0.012760198534386924 -0.03253697485042929 0.0
0.013046655671943675 -0.03850430560158401 0.0
0.012668396621309686 -0.0288536632724117 0.0
0.014741311496851463 -0.04322427249873485 0.0
0.013113035077393257 -0.04071874643500145 0.0
0.009597192241893092 -0.03037265173329271 0.0
0.00921818164323121 -0.026467261175530016 0.0
0.015995739960430997 -0.04206954467729299 0.0
0.013895005220696805 -0.04362779191551903 0.0
0.011401688074977136 -0.018376529572852424 0.0
0.012676125771482007 -0.02027641138344166 0.0
0.0124387222584881 -0.015650475215415714 0.0
0.01201115887921375 -0.04198258581526154 0.0
0.01273109774595455 -0.02476041590980211 0.0
0.007206932333244705 -0.032394812188345244 0.0
0.00804657668278967 -0.03559559087482047 0.0
0.01360300980012285 -0.04366127348086852 0.0
0.020443046724162358 -0.0284713604312245 0.0
0.017959345224172637 -0.03811742165625304 0.0
0.010537921864971218 -0.03821230532015922 0.0
0.009976677116020646 -0.03541000679312457 0.0
0.008724753700636183 -0.020947280261410867 0.0
0.022744164829951098 -0.005694793625290099 0.0
0.004716478906899435 -0.007439841164764103 0.0
0.014342732246988992 -0.015530079360098693 0.0
0.0141100278321151 -0.042864528385247576 0.0
0.01328244153868895 -0.042271424479635694 0.0
0.013002440382957758 -0.04274289075160087 0.0
0.01195605740635689 -0.0071833378201560764 0.0
0.012192898196658714 -0.04315018912628356 0.0
0.02232669497012832 -0.015570102214775786 0.0
0.012865837116700392 -0.020219188130847394 0.0
0.017864539417779785 -0.010637673077164046 0.0
0.012391833190392164 -0.04257296597970733 0.0
0.013095744115182878 -0.035746481418602 0.0
0.013236453406979647 -0.04072936111655995 0.0
0.012996156803045736 -0.03265799042773486 0.0
0.008828777393218154 -0.018698470094999288 0.0
0.009003334732252479 -0.026024861704667036 0.0
0.008687932326650865 -0.021717020896760107 0.0
0.011284633687274129 -0.04002252075820535 0.0
0.010682932887582956 -0.03762317338008663 0.0
0.013748069600761902 -0.04327433500010723 0.0
0.010942389494695004 -0.042046638634229 0.0
0.018749586755272756 -0.017479988888772828 0.0
0.018896734729595507 -0.02474476260745099 0.0
0.017286147834268104 -0.035664990433778666 0.0
0.013122503028356361 -0.04287638358994257 0.0
0.015196935765266286 -0.04220568285835906 0.0
0.004548269099664517 -0.02046868923713411 0.0
0.008287292791553765 -0.016981961854092682 0.0
0.008697769150224851 -0.014611114839039333 0.0
0.01570851546688769 -0.022298722337300285 0.0
0.014912640671924993 -0.03696374413198154 0.0
0.015201452859260185 -0.03402321868315445 0.0
0.014386026001701809 -0.041425170796047225 0.0
0.01665703649955536 -0.03852260295172654 0.0
0.012336682253396276 -0.037111597366726125 0.0
0.012853842737235598 -0.041551455389659646 0.0
0.012135398434753 -0.034162937694929583 0.0
0.022210213669469007 -0.009888221972912514 0.0
0.013468671693712086 -0.04335274144834925 0.0
0.01572491796991761 -0.0342676759145738 0.0
0.015915469618147673 -0.031141141887924093 0.0
0.014940779666487871 -0.039847965669539825 0.0
0.014535495278849706 -0.03956219309543363 0.0
0.009957404782370758 -0.04051350189582858 0.0
0.013813226834451424 -0.04367843230349921 0.0
0.014814736732239521 -0.037046887713170114 0.0
0.015413750734811221 -0.026682329070965287 0.0
0.015355794196862664 -0.018015264642619537 0.0
0.01801218100707965 -0.038043266897314035 0.0
0.008429807803253586 -0.009944391497669633 0.0
0.018309148839245473 -0.009429009788677027 0.0
0.01995816698358093 -0.032238368292286025 0.0
0.007530521859376161 -0.016488792130046417 0.0
0.012564234103590512 -0.04321098123799883 0.0
0.018531819832803754 -0.014305862227347983 0.0
0.01803127447789474 -0.014668101500599716 0.0