<VTKFile type="UnstructuredGrid"  version="0.1">
<UnstructuredGrid>
<Piece NumberOfPoints="713" NumberOfCells="1304">
<Points>
<DataArray type="Float64" NumberOfComponents="3" format="ascii">
0.0 0.0 0.0
10.0 0.0 0.0
10.0 2.0 0.0
5.0 2.0 0.0
0.0 2.0 0.0
0.199999999999856 0.0 0.0
0.3999999999996677 0.0 0.0
0.5999999999994683 0.0 0.0
0.7999999999993286 0.0 0.0
0.9999999999991888 0.0 0.0
1.199999999999033 0.0 0.0
1.399999999998576 0.0 0.0
1.599999999997992 0.0 0.0
1.799999999997408 0.0 0.0
1.999999999996825 0.0 0.0
2.199999999996241 0.0 0.0
2.399999999995657 0.0 0.0
2.599999999995073 0.0 0.0
2.79999999999449 0.0 0.0
2.999999999993906 0.0 0.0
3.199999999993322 0.0 0.0
3.399999999992738 0.0 0.0
3.599999999992154 0.0 0.0
3.799999999991571 0.0 0.0
3.999999999991022 0.0 0.0
4.199999999991187 0.0 0.0
4.399999999991491 0.0 0.0
4.599999999991795 0.0 0.0
4.799999999992099 0.0 0.0
4.999999999992403 0.0 0.0
5.199999999992706 0.0 0.0
5.39999999999301 0.0 0.0
5.599999999993313 0.0 0.0
5.799999999993618 0.0 0.0
5.999999999993922 0.0 0.0
6.199999999994227 0.0 0.0
6.39999999999453 0.0 0.0
6.599999999994833 0.0 0.0
6.799999999995138 0.0 0.0
6.999999999995442 0.0 0.0
7.199999999995747 0.0 0.0
7.39999999999605 0.0 0.0
7.599999999996353 0.0 0.0
7.799999999996658 0.0 0.0
7.999999999996962 0.0 0.0
8.199999999997265 0.0 0.0
8.399999999997569 0.0 0.0
8.599999999997873 0.0 0.0
8.799999999998176 0.0 0.0
8.99999999999848 0.0 0.0
9.199999999998786 0.0 0.0
9.399999999999089 0.0 0.0
9.599999999999392 0.0 0.0
9.799999999999697 0.0 0.0
10.0 0.1999999999996293 0.0
10.0 0.3999999999991157 0.0
10.0 0.5999999999985328 0.0
10.0 0.7999999999979498 0.0
10.0 0.9999999999973885 0.0
10.0 1.199999999997894 0.0
10.0 1.39999999999842 0.0
10.0 1.599999999998947 0.0
10.0 1.799999999999474 0.0
9.799999999999999 2.0 0.0
9.6 2.0 0.0
9.399999999999999 2.0 0.0
9.2 2.0 0.0
8.999999999999998 2.0 0.0
8.799999999999999 2.0 0.0
8.599999999999998 2.0 0.0
8.399999999999999 2.0 0.0
8.2 2.0 0.0
7.999999999999998 2.0 0.0
7.799999999999999 2.0 0.0
7.599999999999999 2.0 0.0
7.399999999999999 2.0 0.0
7.199999999999999 2.0 0.0
7.0 2.0 0.0
6.799999999999999 2.0 0.0
6.6 2.0 0.0
6.399999999999999 2.0 0.0
6.199999999999999 2.0 0.0
5.999999999999999 2.0 0.0
5.8 2.0 0.0
5.6 2.0 0.0
5.399999999999999 2.0 0.0
5.199999999999999 2.0 0.0
4.8 2.0 0.0
4.6 2.0 0.0
4.399999999999999 2.0 0.0
4.199999999999998 2.0 0.0
3.999999999999999 2.0 0.0
3.799999999999999 2.0 0.0
3.599999999999999 2.0 0.0
3.399999999999999 2.0 0.0
3.199999999999998 2.0 0.0
2.999999999999999 2.0 0.0
2.799999999999999 2.0 0.0
2.599999999999999 2.0 0.0
2.399999999999999 2.0 0.0
2.199999999999999 2.0 0.0
2.0 2.0 0.0
1.799999999999999 2.0 0.0
1.599999999999999 2.0 0.0
1.399999999999999 2.0 0.0
1.199999999999999 2.0 0.0
0.9999999999999991 2.0 0.0
0.7999999999999998 2.0 0.0
0.5999999999999996 2.0 0.0
0.3999999999999995 2.0 0.0
0.1999999999999993 2.0 0.0
0.0 1.799999999999167 0.0
0.0 1.6 0.0
0.0 1.400000000001387 0.0
0.0 1.200000000002774 0.0
0.0 1.000000000004117 0.0
0.0 0.8000000000033287 0.0
0.0 0.6000000000024965 0.0
0.0 0.4000000000016644 0.0
0.0 0.200000000000832 0.0
1.499207686858938 0.9671416246672391 0.0
2.690335006295381 0.9619521672166851 0.0
3.892537609238439 1.007271393615351 0.0
8.916602958236062 0.9848120741100651 0.0
7.714518201951718 1.024234589865042 0.0
6.514518201951581 1.024234589865268 0.0
5.299999999999998 1.000000000000349 0.0
0.7620577975594133 1.201991596673393 0.0
4.61755859746166 1.240410629378135 0.0
2.099999999996533 0.6749999999988996 0.0
3.289480163184942 0.6802242156869155 0.0
8.299999999999976 1.325000000000064 0.0
7.110519836808121 1.319775784312006 0.0
5.893184537067197 1.292851873188582 0.0
3.268568008578649 1.341967835735878 0.0
2.118368267083699 1.321829331075689 0.0
5.930896443153832 0.6493414313150682 0.0
7.106926174231782 0.6329785805444448 0.0
8.306926174233002 0.6329785805444098 0.0
4.427960725065653 0.6389803625370323 0.0
0.9828791719046732 0.6520555711814596 0.0
9.383333333333349 0.6166666666667164 0.0
9.383333333333326 1.383333333333367 0.0
4.974443803660211 0.5526668589022862 0.0
1.248084267804327 1.464555585366204 0.0
4.139486343919472 1.468449088519687 0.0
5.077806736162063 1.478342020848787 0.0
1.629462398503482 0.5098631373669138 0.0
2.579462070540726 0.5133714280880515 0.0
3.770778974032556 0.5099482598296803 0.0
8.764748922637567 1.526880805960684 0.0
7.820537929455645 1.486628571911716 0.0
6.632254923791462 1.492045881343967 0.0
2.796478414430566 1.477149214423874 0.0
6.403521585563812 0.5228507855762514 0.0
7.603521585564883 0.5228507855756581 0.0
8.783559188644787 0.5066440811355862 0.0
0.5060338924245764 0.5082251307884346 0.0
5.451633334958382 0.4799315318847731 0.0
1.683269995544083 1.547372422998862 0.0
0.448590368789599 1.551409631210402 0.0
5.545526974704655 1.582008455135239 0.0
3.666056976948354 1.56999765613834 0.0
0.4385739326402744 0.9352922270094057 0.0
9.58170539854767 0.9922137522194456 0.0
4.93200119575972 0.9247090920592975 0.0
6.20679636316332 1.642443126922768 0.0
7.418963044745086 1.587405313446662 0.0
2.98103695524982 0.412594686552066 0.0
2.420975602092416 1.592770352831584 0.0
7.97902439790374 0.4072296471687943 0.0
6.779024397902082 0.4072296471687297 0.0
1.130444757308209 0.9859238872709168 0.0
0.8901814758011342 1.60566856081121 0.0
4.263670373274499 0.9915754392410991 0.0
3.096698167273431 1.009056907826855 0.0
6.088506433998166 0.9857489435828969 0.0
1.902225037409936 1.003483800311746 0.0
7.288506433998439 0.9857489435828686 0.0
8.498964973312972 1.005823551167602 0.0
2.307571737417198 1.008136792450924 0.0
8.100397971125554 1.000138280273345 0.0
6.900397971125225 1.000138280273792 0.0
3.499307350770321 0.9996496628144824 0.0
5.703656022566558 0.9885479657552226 0.0
4.719420624357892 1.622286409566126 0.0
4.099803549896894 0.3600308081356619 0.0
1.286100671532495 0.3637431910670685 0.0
9.120549139677793 1.655065205594329 0.0
9.11726214008418 0.3400668903113251 0.0
4.642568097328033 0.3514924793220939 0.0
9.630437629189052 0.3309104953729904 0.0
9.674493769554315 1.668196579944218 0.0
1.936458797611609 0.3337070483410596 0.0
3.461817573918652 0.3447876019040473 0.0
8.440152788772068 1.649667667046397 0.0
6.973083089482548 1.643748677366674 0.0
3.126874515006838 1.659115470008545 0.0
6.070607878384977 0.3410183041038941 0.0
7.255014454789089 0.32792256737713 0.0
8.462493615948901 0.3368393217476116 0.0
9.236261261261264 0.9276047786917867 0.0
5.885444386845415 1.667751020273455 0.0
0.8062340689595878 0.3261579034781319 0.0
2.29463843780282 0.308358158429197 0.0
8.10536156219338 1.691641841570632 0.0
4.041916759198581 0.7211683801597477 0.0
1.324377365289917 0.710525897087282 0.0
9.023167917315867 1.292262965009952 0.0
2.044244009166302 1.693807225416931 0.0
0.7675765545556328 0.8969765944392112 0.0
2.86965991063896 0.7069213925303978 0.0
6.330340089355722 1.293078607468788 0.0
7.530340089355831 1.29307860746885 0.0
2.509347777214458 1.27231292939881 0.0
7.890652222779963 0.7276870706009825 0.0
6.690652222780154 0.7276870706013264 0.0
4.380959112578968 1.65866292149053 0.0
0.3278422400819535 1.233362752678148 0.0
5.754468991464942 0.3469215055361071 0.0
9.69195804401614 0.7000195364707393 0.0
9.691250997975434 1.303243780084337 0.0
5.54324561063747 1.237401556904767 0.0
9.044596057577811 0.6843248705785732 0.0
5.208929198448351 0.3519433027337513 0.0
3.708880196230617 1.249762029554333 0.0
1.713349558540635 1.234899745098077 0.0
4.586522821995393 0.9261740906803194 0.0
5.241145838821565 0.7007005766013242 0.0
1.434457446926135 1.701926055218157 0.0
0.2821921707428039 0.3393165318407161 0.0
3.42846431357046 1.714274134409306 0.0
5.26283485467567 1.710141275531951 0.0
3.966530105129177 1.718376080180638 0.0
4.891301048299285 1.259923533724591 0.0
0.2787500712946937 0.6906723798523376 0.0
1.822166578929051 0.7301892210727335 0.0
8.593276160688786 1.287322908694633 0.0
2.386017956680413 0.7288816957021155 0.0
3.576911792171353 0.7225526638483954 0.0
8.013982043315597 1.271118304297217 0.0
6.82303669320588 1.277631295759485 0.0
2.891837633696712 1.215141906356511 0.0
8.708162366297856 0.7848580936429009 0.0
7.496736072543097 0.7897651325976158 0.0
6.296736072542775 0.7897651325982009 0.0
5.523181420933933 0.7588744249744506 0.0
4.725538117155759 0.6529070682798582 0.0
2.736307197014292 0.273961667653487 0.0
7.663692802980817 1.726038332346062 0.0
6.446842959287713 1.783714797320288 0.0
1.126188383272983 1.743715177525389 0.0
2.64757240694847 1.787239829472812 0.0
6.546646507559373 0.2589894635657943 0.0
7.746646507561152 0.2589894635657218 0.0
4.079302268890254 1.221431431691139 0.0
4.433746883463333 0.2983726043497702 0.0
1.032697650548726 1.318076986199429 0.0
1.309492735411376 1.208980965369829 0.0
3.896105387998365 0.2579746081881307 0.0
9.378751775005455 1.725996478164223 0.0
9.3965279828929 0.2649862374471925 0.0
1.515757555362918 0.2603060454608533 0.0
4.959097093232828 1.726144293543605 0.0
4.912501341257775 0.2529154558175828 0.0
4.342421824442713 1.285376618065631 0.0
7.023506283123107 0.293611963231815 0.0
8.215829626877609 0.2682061590942965 0.0
5.28145265730745 1.291130016052329 0.0
8.693992162747364 1.744100892812201 0.0
0.6256567126095668 1.775064851453201 0.0
0.2724967459749605 1.756941612685287 0.0
8.90781713264278 0.2741674349222226 0.0
7.184202236567151 1.709454269177068 0.0
3.212962614055919 0.2641656831057426 0.0
0.6761590188374282 0.6746441670621973 0.0
1.020489328989316 0.2487299689497893 0.0
1.485017749467193 1.402133856149482 0.0
6.734223224917944 1.790518105434539 0.0
2.657549589911705 0.7636227781082678 0.0
6.542590471647475 1.237213715285722 0.0
7.742745187066703 1.235538225115726 0.0
0.5794341726414672 0.2480285055479751 0.0
1.842901067642841 1.760146518280044 0.0
3.84389577648662 0.7524680119172447 0.0
3.061589173628368 1.407936939342627 0.0
6.144447294584154 0.5911674363009913 0.0
7.344447294585433 0.5911674362995804 0.0
8.544447294586682 0.5911674362982269 0.0
5.491507940982565 0.1734458797927824 0.0
[...]
<PointData Vectors="fields">
<DataArray type="Float64" Name="U" NumberOfComponents="3" format="ascii">
0.0 0.0 0.0
0.02943457142909843 0.0 0.0
0.0025654058079046826 -0.005457943280079581 0.0
0.014637202138903405 -0.0468814695885105 0.0
0.026800151645768943 -0.005045572382932784 0.0
0.000308781724093269 -0.005578822613121389 0.0
0.0009142988158761694 -0.009167326742502487 0.0
0.001459001230675874 -0.012344356842461664 0.0
0.0019149626701032113 -0.01513908636302835 0.0
0.002314636877352374 -0.0178076746284243 0.0
0.002700637386905496 -0.020372463377248164 0.0
0.00308923347069399 -0.022842058720025184 0.0
0.0035168158720588908 -0.025229532121692134 0.0
0.003959696438168333 -0.027536112911234208 0.0
0.004440789524391529 -0.02973698674854121 0.0
0.004950136893272867 -0.031830736521110424 0.0
0.005510300647551054 -0.033819558785952546 0.0
0.006086508478136909 -0.03568547296403766 0.0
0.006725253314029489 -0.03742846432341178 0.0
0.00736508213662194 -0.03903985097214561 0.0
0.008055835210734462 -0.04051240519634244 0.0
0.008746893624090568 -0.04183277150103232 0.0
0.009469574284139142 -0.04301152761284085 0.0
0.010193464884407689 -0.04400947586011068 0.0
0.010921953317575625 -0.044902089096117544 0.0
0.01167574886650703 -0.04561697958611274 0.0
0.01241878033035159 -0.046168709275358065 0.0
0.013181477050319424 -0.046567933522041756 0.0
0.0139297973884256 -0.0467978082156082 0.0
0.014706991866594766 -0.046874953830635245 0.0
0.015461035054934819 -0.0467914139913095 0.0
0.016212770689282938 -0.04654340675112644 0.0
0.016959243459343146 -0.04613902197336674 0.0
0.01769453666134508 -0.045573082430584756 0.0
0.018408269891215617 -0.04485801468237418 0.0
0.01913571834038505 -0.043999977082140304 0.0
0.019822916669902137 -0.0429508774245215 0.0
0.020511480561600327 -0.04180444238925641 0.0
0.021168110878182555 -0.04051007482548725 0.0
0.02182327976877843 -0.039054790141530335 0.0
0.022441346719039117 -0.037468845734575484 0.0
0.023037534107401995 -0.035759447295382246 0.0
0.02359189774899389 -0.033897008222853055 0.0
0.024135069027793846 -0.03195948857497685 0.0
0.02463761854655624 -0.029903765789195163 0.0
0.025122806315636424 -0.027732037729298 0.0
0.02557007431412256 -0.025453298124467894 0.0
0.025999326650741034 -0.02309213706024632 0.0
0.026391983551495257 -0.02063953882497191 0.0
0.02679345994616783 -0.01809142680003275 0.0
0.027186948384595865 -0.015450744164873468 0.0
0.02762412433060161 -0.012659851229245095 0.0
0.028108391857068673 -0.009629679124008328 0.0
0.028857184104295712 -0.00601994914611017 0.0
0.024868744648688386 -0.0021465384780635635 0.0
0.021924894947031173 -0.003325497069379564 0.0
0.0192545859674171 -0.004076489206393532 0.0
0.016806824819158836 -0.0046455701535444045 0.0
0.014433498796962986 -0.0050042838705282085 0.0
0.012104764810711374 -0.005238678732835729 0.0
0.00977837608403016 -0.005380752267757151 0.0
0.007416305865265449 -0.005444518624918303 0.0
0.005010922456786681 -0.005457705434454172 0.0
0.0025636007831800665 -0.007912698396655355 0.0
0.002570654561444069 -0.010399986365272064 0.0
0.0026178640992214567 -0.012926432457751375 0.0
0.0027262400347241584 -0.015479482595887979 0.0
0.002905151074432959 -0.018022332562448062 0.0
0.0031478830427749153 -0.020521153235591377 0.0
0.0034570929165950856 -0.022986620482378387 0.0
0.0038187876496277775 -0.025363659504794488 0.0
0.004233434303268852 -0.02765144925601933 0.0
0.00470473759794076 -0.02984670441158598 0.0
0.005196007068452581 -0.03192638851817562 0.0
0.00574665405413066 -0.033895119376337546 0.0
0.006301605996046359 -0.035741430180966316 0.0
0.0069071893646959 -0.03745940207659946 0.0
0.00752879601071333 -0.03905018608145083 0.0
0.008173984937695783 -0.0405027676155895 0.0
0.008824507147756911 -0.04178226755995406 0.0
0.009510603216697087 -0.04297961917842014 0.0
0.010212595054188615 -0.043991662362645526 0.0
0.010910949602245673 -0.04485951719110933 0.0
0.011640730249635165 -0.0455834562447574 0.0
0.012394064052411535 -0.04614444924073999 0.0
0.013121874693258937 -0.04654760125668234 0.0
0.013884358922802188 -0.046795993540117396 0.0
0.015408729601135466 -0.04679402119779808 0.0
0.016147200720843972 -0.04656240104507613 0.0
0.016879889551657916 -0.04617292830841101 0.0
0.017630271709181494 -0.045633007856828126 0.0
0.018373768016092275 -0.044912360718114955 0.0
0.019114903116445293 -0.04403773555329395 0.0
0.01980772286575725 -0.04301677853360178 0.0
0.02050927884512449 -0.041840343897057035 0.0
0.02118797280460696 -0.04052208212584821 0.0
0.021856638237098373 -0.03905289365730243 0.0
0.02248003947079504 -0.03741073812211469 0.0
0.02309544725124531 -0.03568903632242223 0.0
0.02366364838833418 -0.03380728195998087 0.0
0.02419501933575332 -0.031805489635819265 0.0
0.024706139293672033 -0.02968947328001421 0.0
0.025167317110599684 -0.02746644103054203 0.0
0.025570042000229387 -0.025152517069819802 0.0
0.025939739193585297 -0.02274245416109943 0.0
0.026239055583153988 -0.020264132685672634 0.0
0.026478375808614903 -0.017725016159879464 0.0
0.02664448227546997 -0.01516247222722037 0.0
0.026743671285108767 -0.012587219412343004 0.0
0.02679230018149175 -0.01003905432476445 0.0
0.02680391997311262 -0.007523214371145413 0.0
0.024328577470589207 -0.005046799419703634 0.0
0.02189526099149815 -0.005034486905946595 0.0
0.019508030294844745 -0.004977089426406851 0.0
0.017146243577117748 -0.0048448996173589874 0.0
0.014792674135452714 -0.004601055800684371 0.0
0.012393904643805936 -0.004254991662654973 0.0
0.009920621230861335 -0.003702194716425287 0.0
0.007251308442476582 -0.0029381837570162544 0.0
0.004086784833677465 -0.0016604400914187805 0.0
0.01427118853779728 -0.024168237033831284 0.0
0.014292253799907995 -0.036785838440609675 0.0
0.014659874344499594 -0.044808289711534825 0.0
0.014701617570021152 -0.01922088550187408 0.0
0.014446767647321824 -0.03305404330429043 0.0
0.014539808519391201 -0.04265695818662246 0.0
0.014661794069119171 -0.04704879656668241 0.0
0.01712274345391852 -0.014691897835651028 0.0
0.014985197313229828 -0.04693530774482775 0.0
0.01146170020348283 -0.0310072034853133 0.0
0.012673102012230337 -0.04142321064654824 0.0
0.011287437196393536 -0.026714390295840888 0.0
0.01234104151767345 -0.03845271790169242 0.0
0.013709910661073469 -0.045590029113041226 0.0
0.01672247721087819 -0.041282772589194654 0.0
0.017659305503903187 -0.03117744335619287 0.0
0.015864702116421103 -0.04543908824003038 0.0
0.01734499229520538 -0.03848621052114327 0.0
0.018450987752105148 -0.026694428755252048 0.0
0.013907826048361088 -0.04655552673354596 0.0
0.010624412119555442 -0.01764624099488628 0.0
0.018997196732670866 -0.0129608188079789 0.0
0.010015891771875502 -0.013128037170704992 0.0
0.014633570395106434 -0.04716160995617574 0.0
0.019869131391273276 -0.02097945257433547 0.0
0.01611910083369109 -0.04569791550999899 0.0
0.01450337399026324 -0.047137797324166855 0.0
0.009341179008138543 -0.025717209031330967 0.0
0.0105191289567319 -0.035719754806980135 0.0
0.012454732485733342 -0.04415633424530922 0.0
0.008732121943375923 -0.02107306909135362 0.0
0.010147495373983451 -0.03190882147568493 0.0
0.01180543988707308 -0.04184928139519603 0.0
0.01826994024682919 -0.03763149925585815 0.0
0.017085439852751502 -0.043208300470482956 0.0
0.01882910226227464 -0.03408365777013945 0.0
0.020193241451360627 -0.020947959548399557 0.0
0.008782976799323064 -0.011000883275403918 0.0
0.015554673807176225 -0.04671883944242085 0.0
0.020379252402993753 -0.02626521957990327 0.0
0.021288726628054554 -0.010634891599406214 0.0
0.013478954750938169 -0.046510866020002054 0.0
0.017396127207075042 -0.04360256328518882 0.0
0.014081257616318498 -0.010246610735531729 0.0
0.014468403665926588 -0.010358482304285072 0.0
0.014642095821473872 -0.04724270383083238 0.0
0.01183982413149358 -0.044159922296834166 0.0
0.00983404430190423 -0.03575220370960974 0.0
0.010413749663924719 -0.03910247834276954 0.0
0.019818862639686796 -0.03419090714075383 0.0
0.02042497711162981 -0.03027177950014387 0.0
0.01841553939504565 -0.04085099135918285 0.0
0.014532022407515954 -0.019544481579636317 0.0
0.02174946704602007 -0.01636623773643539 0.0
0.01462301792693514 -0.04617400281535166 0.0
0.014670203227009942 -0.040093820531034594 0.0
0.014726739063279915 -0.044841581175587994 0.0
0.014632797317776815 -0.028864728248807994 0.0
0.014781649181798789 -0.03700458949553494 0.0
0.01454657896559274 -0.024423508790289455 0.0
0.014663817317896833 -0.03316911533919656 0.0
0.014644999890385854 -0.029011359355536177 0.0
0.014668217630970879 -0.04009926553153313 0.0
0.01461833316114355 -0.042787437601836786 0.0
0.014689577095024983 -0.046224629155749215 0.0
0.015290004605160248 -0.046961621590771795 0.0
0.012545638021085947 -0.0454999035442209 0.0
0.007316142873902659 -0.021550512261753144 0.0
0.006982827868137033 -0.016535771431426153 0.0
0.022495777328925208 -0.016631656301448042 0.0
0.013822384525076285 -0.04684914951776934 0.0
0.02277757342455538 -0.009206958068401418 0.0
0.00661393329171551 -0.00945294854614598 0.0
0.007837087016810487 -0.02918057182788999 0.0
0.010985489024236805 -0.04242527864071337 0.0
0.007701853973656599 -0.02500363939561334 0.0
0.010203706374395185 -0.039435323044393 0.0
0.019022468923602005 -0.04018241598027528 0.0
0.017265844035555797 -0.04477381157127337 0.0
0.019912236274735817 -0.03717392821189686 0.0
0.02183353292734715 -0.024841770061233587 0.0
0.01528329686903043 -0.015015295378284133 0.0
0.012482836730220225 -0.045494152739103066 0.0
0.006408400984422736 -0.015292897464295692 0.0
0.008202536300036159 -0.032928450273235856 0.0
0.007727969060904834 -0.02882390234623814 0.0
0.013675100721549323 -0.04540094538713472 0.0
0.01139619484734011 -0.022036349833755263 0.0
0.011201948078738116 -0.017819422343217383 0.0
0.02141394418931138 -0.03029982755199354 0.0
0.013573513099362972 -0.014745776377307744 0.0
0.012423701708289362 -0.03830033939994602 0.0
0.013270075732665395 -0.043664209901204815 0.0
0.01218555325738635 -0.03480948734029811 0.0
0.016906692606312904 -0.03510398238881044 0.0
0.017225139711293847 -0.03125620073922692 0.0
0.016303154294812463 -0.04153387720036178 0.0
0.016151361552389644 -0.04634273263779434 0.0
0.017573008221346286 -0.008955166487805755 0.0
0.016505098959454453 -0.04592038028643389 0.0
0.01791856337525453 -0.00857725566136795 0.0
0.010883054451454727 -0.009122752198418453 0.0
0.014185408622106935 -0.04661041683565939 0.0
0.018172924657635613 -0.017579459504371026 0.0
0.015192947212304828 -0.047000304334218104 0.0
0.015789680355581547 -0.043920047312168746 0.0
0.017058215892807486 -0.026682927593007808 0.0
0.014546441818947299 -0.04690353600685308 0.0
0.014937555871012875 -0.04709133027208423 0.0
0.02238117091056821 -0.023252461472277015 0.0
0.00648892677377287 -0.00738849557789588 0.0
0.018695482047783794 -0.04218283277816293 0.0
0.013951544846455093 -0.046921792143973726 0.0
0.017367682888932246 -0.04496207514636792 0.0
0.014752454508670933 -0.047188999094665805 0.0
0.011145223972851658 -0.0077968738345803035 0.0
0.01182925697424178 -0.02796040572223294 0.0
0.011491957870105495 -0.023233892020861624 0.0
0.012192927834609214 -0.033929720171940174 0.0
0.013217611530474268 -0.04320396244341204 0.0
0.01203414568584076 -0.029918914543484783 0.0
0.012900184703722364 -0.040624673920547846 0.0
0.016183453619952378 -0.03847867624905063 0.0
0.016966160535728515 -0.021883213116799246 0.0
0.016430748140374846 -0.03512991605514993 0.0
0.01565386577422158 -0.04383495695264393 0.0
0.015133955497616794 -0.046651567354884814 0.0
0.014316584173587391 -0.04705317983569322 0.0
0.008817910055563151 -0.037033136946659925 0.0
0.008165134261826527 -0.033405928301766696 0.0
0.010548666899951568 -0.042835474876356604 0.0
0.023206986688542194 -0.019388265351081756 0.0
0.021089369094380965 -0.03621884181931004 0.0
0.018816372912655612 -0.04228203426080101 0.0
0.02148722420051328 -0.032610551464293536 0.0
0.015377729233476328 -0.045541739719894773 0.0
0.013199002335573458 -0.04643422642890192 0.0
0.018341165371526386 -0.018242110763944434 0.0
0.016978582195699303 -0.021790680459796916 0.0
0.011638621914988028 -0.04463440527315214 0.0
0.005995193686485585 -0.01321038460619612 0.0
0.02372073314347872 -0.01276494034235852 0.0
0.006386809207533835 -0.02433424970798083 0.0
0.014751893231846022 -0.04705755922856596 0.0
0.014447958612648849 -0.047025221582333396 0.0
0.015328424859486474 -0.046358556824110206 0.0
0.019695199613320145 -0.0390277006221444 0.0
0.02222465931640623 -0.027654738999310785 0.0
0.014350541643700249 -0.047040907600516796 0.0
0.006332939202082106 -0.0219060479319393 0.0
0.023927869132090857 -0.01293210239523928 0.0
0.023792460434571006 -0.008421856837407721 0.0
0.023135494408600278 -0.019359828882752558 0.0
0.009278579667457893 -0.037735560038981014 0.0
0.009892157390321397 -0.04075568085136541 0.0
0.010901365265929391 -0.013475440516174214 0.0
0.0055886908940327 -0.018143088992900056 0.0
0.018993983755949878 -0.02392557390833997 0.0
0.009750424104420492 -0.041053968492763784 0.0
0.012679428709542287 -0.03647973280686833 0.0
0.013364814586916011 -0.04246873901731352 0.0
0.012534306413377529 -0.03274900181489898 0.0
0.005174608560071135 -0.012063288801312445 0.0
0.022442602869214966 -0.028043353699242216 0.0
0.013600305026292767 -0.04456265026814049 0.0
0.017395254858051684 -0.03977318228607836 0.0
0.016367817471015747 -0.044527894838237984 0.0
0.017928181953173493 -0.036471518735762244 0.0
0.01905879937332082 -0.023888949098669433 0.0
0.016211956310927228 -0.04649554881564531 0.0
0.012209981219876386 -0.024947013050253573 0.0
0.02023587493553563 -0.0386584799423528 0.0
0.021110830842418115 -0.035407186256401865 0.0
0.01818578549048235 -0.04387535236082664 0.0
0.02018932183642347 -0.013625460461060673 0.0
0.012298330528074634 -0.013095513722687451 0.0
0.012765259554231159 -0.04605774288496842 0.0
0.01629760350251135 -0.04466751885110794 0.0
0.007699349006040711 -0.034954367725251255 0.0
0.007058875833717438 -0.031078485221612127 0.0
0.01593825697193324 -0.04604298619676994 0.0
0.011980909035737366 -0.020964462038519767 0.0
0.01972679997906314 -0.029398529624075298 0.0
0.016660322034204044 -0.011821672318615611 0.0
0.016988174425028188 -0.04573357054358555 0.0
0.020602818717408364 -0.0069703023819125765 0.0
0.010869007271586285 -0.04347687312178189 0.0
0.006338298168347526 -0.027032526376665866 0.0
0.015501396069571799 -0.046730201053869325 0.0
0.01153640368387384 -0.044695425531003564 0.0
0.016708123295171465 -0.042895848580866695 0.0
0.021993344106160502 -0.03274351337778392 0.0
0.014635711825025965 -0.04722031863441416 0.0
0.015078707284502524 -0.007772222699443423 0.0
0.013663307476647724 -0.04625250442158913 0.0
0.014367856404262606 -0.045586286992833264 0.0
0.013667831274591117 -0.026747951342982867 0.0
0.013966702829053126 -0.03846782048796823 0.0
0.013692026942427986 -0.031019774705000436 0.0
0.014021412316482759 -0.0414250483745605 0.0
0.005599255124541016 -0.018777520829372337 0.0
0.015512892034493788 -0.007526658598550107 0.0
0.018285724312064433 -0.043866703533545555 0.0
0.014688957893593434 -0.04722102925273323 0.0
0.014200683218542428 -0.04703120455431839 0.0
0.011528479037309719 -0.010326258691743792 0.0
0.02373992580183492 -0.021933082350354807 0.0
0.018532505118176255 -0.029211451839988294 0.0
0.018502378842524883 -0.03306610906078254 0.0
0.017258730371701 -0.04019088547458617 0.0
0.011590664727613437 -0.03674325016856818 0.0
0.011971733796592807 -0.03997319050199062 0.0
0.013136095568641057 -0.04476951884960974 0.0
0.0066427494055670295 -0.031022433911340963 0.0
0.006154709063660625 -0.026748162026793115 0.0
0.012265822764821153 -0.043085516404988304 0.0
0.010583196788838114 -0.0339222243691938 0.0
0.010983233867431712 -0.03751053675875542 0.0
0.01684172163836395 -0.028967048479380197 0.0
0.016390711662634973 -0.012343382789213415 0.0
0.008737795558314894 -0.0078003116825506895 0.0
0.020182648182453838 -0.006702719558454057 0.0
0.015327357072904306 -0.041395690919433986 0.0
0.015706438220067044 -0.031192828779527434 0.0
0.015083119614316255 -0.04550509622044295 0.0
0.015555512134206723 -0.03841561617052769 0.0
0.015880144834078735 -0.02655585258294258 0.0
0.02265220705531302 -0.025744260857814196 0.0
0.00879175120225798 -0.005958833221778591 0.0
0.01851024660987902 -0.036005800855856605 0.0
0.01736328044872056 -0.042129501694704335 0.0
0.019032296307031498 -0.032261542086447 0.0
0.013746484178878528 -0.0350432038868758 0.0
0.014139075026453746 -0.0415005992482048 0.0
0.013729438467242172 -0.03112307457506331 0.0
0.01594161429677435 -0.04663882184129906 0.0
0.014173480462537524 -0.04392478980996974 0.0
0.010305243719018581 -0.03269582382337917 0.0
0.010015797264713968 -0.02855701317935677 0.0
0.017334456258895257 -0.045361095268152934 0.0
0.015033693081630703 -0.047058289029463254 0.0
0.01226171632678958 -0.019742766292543963 0.0
0.013639835100513852 -0.02178949328634066 0.0
0.013470843923450281 -0.01689260532585619 0.0
0.013002037350856706 -0.045292154702944856 0.0
0.01370206244536623 -0.026623085958299934 0.0
0.007857615186596131 -0.03494228755589097 0.0
0.008645015816332409 -0.0383753059725973 0.0
0.014724008356258296 -0.047090233776056825 0.0
0.022099887530146217 -0.03072055189227285 0.0
0.019435439239144568 -0.041098185141143107 0.0
0.011373393187467072 -0.041214043101223355 0.0
0.010835988859270586 -0.03817765507722206 0.0
0.009368813980564225 -0.02251308865498132 0.0
0.024589923739645816 -0.006138007366907547 0.0
0.0051435597304331435 -0.00804055425477729 0.0
0.015437955979076573 -0.016679540769441933 0.0
0.015289170126378903 -0.046207221710584 0.0
0.01436781097798558 -0.04560007370411329 0.0
0.014072654380293282 -0.04610759211572977 0.0
0.012943604778082969 -0.007757304317266655 0.0
0.013197914638639317 -0.04653670827961787 0.0
0.024061697650552417 -0.016730357725660314 0.0
0.01393491556871259 -0.021821236404841664 0.0
0.019241420611197966 -0.011413081200957874 0.0
0.013418047926249208 -0.04592702735489952 0.0
0.014124116251091848 -0.03853300632379544 0.0
0.014342620135058673 -0.04389767395836121 0.0
0.014084109645427738 -0.03521393350144265 0.0
0.009482974054804374 -0.020089713167703714 0.0
0.009663577432684145 -0.02799098233326502 0.0
0.009437647926171354 -0.023438390258765603 0.0
0.012198546766412986 -0.043175156346889204 0.0
0.011593539993143928 -0.04055757707786274 0.0
0.014875463960886414 -0.04667842771588992 0.0
0.011856699807957876 -0.045369825128439054 0.0
0.020201566334734706 -0.018783718572115686 0.0
0.02043463699431772 -0.02670311496437127 0.0
0.01870457394928167 -0.038453405355122726 0.0
0.014214273834985656 -0.046220296092228864 0.0
0.016468013174917726 -0.04549963096780075 0.0
0.004860423620776323 -0.022004335149010477 0.0
0.008999584770252249 -0.01833140333602401 0.0
0.00943927293522458 -0.01577335162849597 0.0
0.016998579811001842 -0.024063906322914413 0.0
0.01609951292603669 -0.03985672169787207 0.0
0.01645762315649435 -0.03668266187404276 0.0
0.015585993397902708 -0.044649565325688964 0.0
0.018000479545680362 -0.041554559425625005 0.0
0.013310158162311545 -0.04001669556323952 0.0
0.013927579778346664 -0.04478613487229988 0.0
0.013158766488668703 -0.03683227715598441 0.0
0.0239328842329613 -0.010606498475689535 0.0
0.014589038952926483 -0.046737212036556154 0.0
0.01697285843604174 -0.036926738318253154 0.0
0.017224245463457397 -0.033584728437144835 0.0
0.01618317894421277 -0.04294931203200953 0.0
0.015702239809505684 -0.04267513534634425 0.0
0.010802132556557629 -0.043682735014344706 0.0
0.014974309594962619 -0.04710106710396971 0.0
0.016043728155710257 -0.03993343890744064 0.0
0.016682343259681074 -0.028786662463280058 0.0
0.016616812110183964 -0.019443803486206383 0.0
0.01947312545313838 -0.04104072361400117 0.0
0.009146674422910032 -0.010739213169806645 0.0
0.01979945405692482 -0.010172754966032533 0.0
0.02156435157101134 -0.034734595759460064 0.0
0.008083163714505275 -0.0177105300237334 0.0
0.013616328531346969 -0.046613711132273125 0.0
0.020042364028042124 -0.015440372534863146 0.0
0.01942278322699896 -0.015754314271742814 0.0