<VTKFile type="UnstructuredGrid"  version="0.1">
<UnstructuredGrid>
<Piece NumberOfPoints="713" NumberOfCells="1304">
<Points>
<DataArray type="Float64" NumberOfComponents="3" format="ascii">
0.0 0.0 0.0
10.0 0.0 0.0
10.0 2.0 0.0
5.0 2.0 0.0
0.0 2.0 0.0
0.199999999999856 0.0 0.0
0.3999999999996677 0.0 0.0
0.5999999999994683 0.0 0.0
0.7999999999993286 0.0 0.0
0.9999999999991888 0.0 0.0
1.199999999999033 0.0 0.0
1.399999999998576 0.0 0.0
1.599999999997992 0.0 0.0
1.799999999997408 0.0 0.0
1.999999999996825 0.0 0.0
2.199999999996241 0.0 0.0
2.399999999995657 0.0 0.0
2.599999999995073 0.0 0.0
2.79999999999449 0.0 0.0
2.999999999993906 0.0 0.0
3.199999999993322 0.0 0.0
3.399999999992738 0.0 0.0
3.599999999992154 0.0 0.0
3.799999999991571 0.0 0.0
3.999999999991022 0.0 0.0
4.199999999991187 0.0 0.0
4.399999999991491 0.0 0.0
4.599999999991795 0.0 0.0
4.799999999992099 0.0 0.0
4.999999999992403 0.0 0.0
5.199999999992706 0.0 0.0
5.39999999999301 0.0 0.0
5.599999999993313 0.0 0.0
5.799999999993618 0.0 0.0
5.999999999993922 0.0 0.0
6.199999999994227 0.0 0.0
6.39999999999453 0.0 0.0
6.599999999994833 0.0 0.0
6.799999999995138 0.0 0.0
6.999999999995442 0.0 0.0
7.199999999995747 0.0 0.0
7.39999999999605 0.0 0.0
7.599999999996353 0.0 0.0
7.799999999996658 0.0 0.0
7.999999999996962 0.0 0.0
8.199999999997265 0.0 0.0
8.399999999997569 0.0 0.0
8.599999999997873 0.0 0.0
8.799999999998176 0.0 0.0
8.99999999999848 0.0 0.0
9.199999999998786 0.0 0.0
9.399999999999089 0.0 0.0
9.599999999999392 0.0 0.0
9.799999999999697 0.0 0.0
10.0 0.1999999999996293 0.0
10.0 0.3999999999991157 0.0
10.0 0.5999999999985328 0.0
10.0 0.7999999999979498 0.0
10.0 0.9999999999973885 0.0
10.0 1.199999999997894 0.0
10.0 1.39999999999842 0.0
10.0 1.599999999998947 0.0
10.0 1.799999999999474 0.0
9.799999999999999 2.0 0.0
9.6 2.0 0.0
9.399999999999999 2.0 0.0
9.2 2.0 0.0
8.999999999999998 2.0 0.0
8.799999999999999 2.0 0.0
8.599999999999998 2.0 0.0
8.399999999999999 2.0 0.0
8.2 2.0 0.0
7.999999999999998 2.0 0.0
7.799999999999999 2.0 0.0
7.599999999999999 2.0 0.0
7.399999999999999 2.0 0.0
7.199999999999999 2.0 0.0
7.0 2.0 0.0
6.799999999999999 2.0 0.0
6.6 2.0 0.0
6.399999999999999 2.0 0.0
6.199999999999999 2.0 0.0
5.999999999999999 2.0 0.0
5.8 2.0 0.0
5.6 2.0 0.0
5.399999999999999 2.0 0.0
5.199999999999999 2.0 0.0
4.8 2.0 0.0
4.6 2.0 0.0
4.399999999999999 2.0 0.0
4.199999999999998 2.0 0.0
3.999999999999999 2.0 0.0
3.799999999999999 2.0 0.0
3.599999999999999 2.0 0.0
3.399999999999999 2.0 0.0
3.199999999999998 2.0 0.0
2.999999999999999 2.0 0.0
2.799999999999999 2.0 0.0
2.599999999999999 2.0 0.0
2.399999999999999 2.0 0.0
2.199999999999999 2.0 0.0
2.0 2.0 0.0
1.799999999999999 2.0 0.0
1.599999999999999 2.0 0.0
1.399999999999999 2.0 0.0
1.199999999999999 2.0 0.0
0.9999999999999991 2.0 0.0
0.7999999999999998 2.0 0.0
0.5999999999999996 2.0 0.0
0.3999999999999995 2.0 0.0
0.1999999999999993 2.0 0.0
0.0 1.799999999999167 0.0
0.0 1.6 0.0
0.0 1.400000000001387 0.0
0.0 1.200000000002774 0.0
0.0 1.000000000004117 0.0
0.0 0.8000000000033287 0.0
0.0 0.6000000000024965 0.0
0.0 0.4000000000016644 0.0
0.0 0.200000000000832 0.0
1.499207686858938 0.9671416246672391 0.0
2.690335006295381 0.9619521672166851 0.0
3.892537609238439 1.007271393615351 0.0
8.916602958236062 0.9848120741100651 0.0
7.714518201951718 1.024234589865042 0.0
6.514518201951581 1.024234589865268 0.0
5.299999999999998 1.000000000000349 0.0
0.7620577975594133 1.201991596673393 0.0
4.61755859746166 1.240410629378135 0.0
2.099999999996533 0.6749999999988996 0.0
3.289480163184942 0.6802242156869155 0.0
8.299999999999976 1.325000000000064 0.0
7.110519836808121 1.319775784312006 0.0
5.893184537067197 1.292851873188582 0.0
3.268568008578649 1.341967835735878 0.0
2.118368267083699 1.321829331075689 0.0
5.930896443153832 0.6493414313150682 0.0
7.106926174231782 0.6329785805444448 0.0
8.306926174233002 0.6329785805444098 0.0
4.427960725065653 0.6389803625370323 0.0
0.9828791719046732 0.6520555711814596 0.0
9.383333333333349 0.6166666666667164 0.0
9.383333333333326 1.383333333333367 0.0
4.974443803660211 0.5526668589022862 0.0
1.248084267804327 1.464555585366204 0.0
4.139486343919472 1.468449088519687 0.0
5.077806736162063 1.478342020848787 0.0
1.629462398503482 0.5098631373669138 0.0
2.579462070540726 0.5133714280880515 0.0
3.770778974032556 0.5099482598296803 0.0
8.764748922637567 1.526880805960684 0.0
7.820537929455645 1.486628571911716 0.0
6.632254923791462 1.492045881343967 0.0
2.796478414430566 1.477149214423874 0.0
6.403521585563812 0.5228507855762514 0.0
7.603521585564883 0.5228507855756581 0.0
8.783559188644787 0.5066440811355862 0.0
0.5060338924245764 0.5082251307884346 0.0
5.451633334958382 0.4799315318847731 0.0
1.683269995544083 1.547372422998862 0.0
0.448590368789599 1.551409631210402 0.0
5.545526974704655 1.582008455135239 0.0
3.666056976948354 1.56999765613834 0.0
0.4385739326402744 0.9352922270094057 0.0
9.58170539854767 0.9922137522194456 0.0
4.93200119575972 0.9247090920592975 0.0
6.20679636316332 1.642443126922768 0.0
7.418963044745086 1.587405313446662 0.0
2.98103695524982 0.412594686552066 0.0
2.420975602092416 1.592770352831584 0.0
7.97902439790374 0.4072296471687943 0.0
6.779024397902082 0.4072296471687297 0.0
1.130444757308209 0.9859238872709168 0.0
0.8901814758011342 1.60566856081121 0.0
4.263670373274499 0.9915754392410991 0.0
3.096698167273431 1.009056907826855 0.0
6.088506433998166 0.9857489435828969 0.0
1.902225037409936 1.003483800311746 0.0
7.288506433998439 0.9857489435828686 0.0
8.498964973312972 1.005823551167602 0.0
2.307571737417198 1.008136792450924 0.0
8.100397971125554 1.000138280273345 0.0
6.900397971125225 1.000138280273792 0.0
3.499307350770321 0.9996496628144824 0.0
5.703656022566558 0.9885479657552226 0.0
4.719420624357892 1.622286409566126 0.0
4.099803549896894 0.3600308081356619 0.0
1.286100671532495 0.3637431910670685 0.0
9.120549139677793 1.655065205594329 0.0
9.11726214008418 0.3400668903113251 0.0
4.642568097328033 0.3514924793220939 0.0
9.630437629189052 0.3309104953729904 0.0
9.674493769554315 1.668196579944218 0.0
1.936458797611609 0.3337070483410596 0.0
3.461817573918652 0.3447876019040473 0.0
8.440152788772068 1.649667667046397 0.0
6.973083089482548 1.643748677366674 0.0
3.126874515006838 1.659115470008545 0.0
6.070607878384977 0.3410183041038941 0.0
7.255014454789089 0.32792256737713 0.0
8.462493615948901 0.3368393217476116 0.0
9.236261261261264 0.9276047786917867 0.0
5.885444386845415 1.667751020273455 0.0
0.8062340689595878 0.3261579034781319 0.0
2.29463843780282 0.308358158429197 0.0
8.10536156219338 1.691641841570632 0.0
4.041916759198581 0.7211683801597477 0.0
1.324377365289917 0.710525897087282 0.0
9.023167917315867 1.292262965009952 0.0
2.044244009166302 1.693807225416931 0.0
0.7675765545556328 0.8969765944392112 0.0
2.86965991063896 0.7069213925303978 0.0
6.330340089355722 1.293078607468788 0.0
7.530340089355831 1.29307860746885 0.0
2.509347777214458 1.27231292939881 0.0
7.890652222779963 0.7276870706009825 0.0
6.690652222780154 0.7276870706013264 0.0
4.380959112578968 1.65866292149053 0.0
0.3278422400819535 1.233362752678148 0.0
5.754468991464942 0.3469215055361071 0.0
9.69195804401614 0.7000195364707393 0.0
9.691250997975434 1.303243780084337 0.0
5.54324561063747 1.237401556904767 0.0
9.044596057577811 0.6843248705785732 0.0
5.208929198448351 0.3519433027337513 0.0
3.708880196230617 1.249762029554333 0.0
1.713349558540635 1.234899745098077 0.0
4.586522821995393 0.9261740906803194 0.0
5.241145838821565 0.7007005766013242 0.0
1.434457446926135 1.701926055218157 0.0
0.2821921707428039 0.3393165318407161 0.0
3.42846431357046 1.714274134409306 0.0
5.26283485467567 1.710141275531951 0.0
3.966530105129177 1.718376080180638 0.0
4.891301048299285 1.259923533724591 0.0
0.2787500712946937 0.6906723798523376 0.0
1.822166578929051 0.7301892210727335 0.0
8.593276160688786 1.287322908694633 0.0
2.386017956680413 0.7288816957021155 0.0
3.576911792171353 0.7225526638483954 0.0
8.013982043315597 1.271118304297217 0.0
6.82303669320588 1.277631295759485 0.0
2.891837633696712 1.215141906356511 0.0
8.708162366297856 0.7848580936429009 0.0
7.496736072543097 0.7897651325976158 0.0
6.296736072542775 0.7897651325982009 0.0
5.523181420933933 0.7588744249744506 0.0
4.725538117155759 0.6529070682798582 0.0
2.736307197014292 0.273961667653487 0.0
7.663692802980817 1.726038332346062 0.0
6.446842959287713 1.783714797320288 0.0
1.126188383272983 1.743715177525389 0.0
2.64757240694847 1.787239829472812 0.0
6.546646507559373 0.2589894635657943 0.0
7.746646507561152 0.2589894635657218 0.0
4.079302268890254 1.221431431691139 0.0
4.433746883463333 0.2983726043497702 0.0
1.032697650548726 1.318076986199429 0.0
1.309492735411376 1.208980965369829 0.0
3.896105387998365 0.2579746081881307 0.0
9.378751775005455 1.725996478164223 0.0
9.3965279828929 0.2649862374471925 0.0
1.515757555362918 0.2603060454608533 0.0
4.959097093232828 1.726144293543605 0.0
4.912501341257775 0.2529154558175828 0.0
4.342421824442713 1.285376618065631 0.0
7.023506283123107 0.293611963231815 0.0
8.215829626877609 0.2682061590942965 0.0
5.28145265730745 1.291130016052329 0.0
8.693992162747364 1.744100892812201 0.0
0.6256567126095668 1.775064851453201 0.0
0.2724967459749605 1.756941612685287 0.0
8.90781713264278 0.2741674349222226 0.0
7.184202236567151 1.709454269177068 0.0
3.212962614055919 0.2641656831057426 0.0
0.6761590188374282 0.6746441670621973 0.0
1.020489328989316 0.2487299689497893 0.0
1.485017749467193 1.402133856149482 0.0
6.734223224917944 1.790518105434539 0.0
2.657549589911705 0.7636227781082678 0.0
6.542590471647475 1.237213715285722 0.0
7.742745187066703 1.235538225115726 0.0
0.5794341726414672 0.2480285055479751 0.0
1.842901067642841 1.760146518280044 0.0
3.84389577648662 0.7524680119172447 0.0
3.061589173628368 1.407936939342627 0.0
6.144447294584154 0.5911674363009913 0.0
7.344447294585433 0.5911674362995804 0.0
8.544447294586682 0.5911674362982269 0.0
5.491507940982565 0.1734458797927824 0.0
[...]
<PointData Vectors="fields">
<DataArray type="Float64" Name="U" NumberOfComponents="3" format="ascii">
0.0 0.0 0.0
0.03319845820216319 0.0 0.0
0.002579496995758624 -0.006111352928438828 0.0
0.016605705549817378 -0.05314147789919545 0.0
0.03018783068248422 -0.005704573992473715 0.0
0.00034986901648826393 -0.006296905404378501 0.0
0.00103467370954874 -0.01034267024115983 0.0
0.0016506662082911095 -0.013923567634268585 0.0
0.002166217498254567 -0.01707208293332202 0.0
0.002618172887466651 -0.02007807857325862 0.0
0.003054512843660621 -0.022966751313525116 0.0
0.00349336838169579 -0.0257477786557425 0.0
0.003975260613547036 -0.028436103022881742 0.0
0.0044726057309901 -0.031032954449263413 0.0
0.005009166912599094 -0.03351048432106346 0.0
0.005571956803156697 -0.03586798732391268 0.0
0.006184636530157552 -0.03810754916949339 0.0
0.006807569010397262 -0.04021083548915807 0.0
0.00749335340221092 -0.04217812532768253 0.0
0.008176745626371284 -0.044001535535941876 0.0
0.008915904413841769 -0.04567372421010397 0.0
0.00965903562675882 -0.0471808687142985 0.0
0.01044223634333959 -0.04853387115792212 0.0
0.01123469761890772 -0.049689082035014875 0.0
0.012037732283734956 -0.05072835737700781 0.0
0.012876789290997651 -0.051571120254842735 0.0
0.013710243177925904 -0.05223143082284208 0.0
0.014571611139119615 -0.05272055032243358 0.0
0.015421817051975 -0.05301827157142146 0.0
0.016309082285720845 -0.05314263582317281 0.0
0.01717360543050916 -0.05308339908070242 0.0
0.01803858612496506 -0.05283527361934908 0.0
0.018899959259428476 -0.05240652776252271 0.0
0.01975011839108163 -0.05179019298779278 0.0
0.02057614653387147 -0.05099996501577382 0.0
0.02141826893688009 -0.050042614120125575 0.0
0.022212565424461324 -0.04886169345439805 0.0
0.023007375809491675 -0.047567123318607706 0.0
0.023763106184381797 -0.04609987755257631 0.0
0.024515567524542668 -0.04444586311055102 0.0
0.025224162815314716 -0.0426406525352567 0.0
0.02590756628420568 -0.04069305398341504 0.0
0.026545332498069143 -0.03856900518292552 0.0
0.02717164830476977 -0.03635827203611098 0.0
0.027753353822990514 -0.034011590200790386 0.0
0.02831634619411582 -0.031531413709677 0.0
0.028834609402530607 -0.02892853215253538 0.0
0.029329297257174616 -0.02623194908617551 0.0
0.029778536978166237 -0.02343214177420361 0.0
0.030233955140192743 -0.020525008674304006 0.0
0.030677377689807887 -0.01751491411403793 0.0
0.03116783311394365 -0.014337420073608623 0.0
0.03170988360601057 -0.010893043049858298 0.0
0.032549135864983036 -0.006800148099317719 0.0
0.028030662126110856 -0.0024112310358907632 0.0
0.024681852855822094 -0.0037325464027081327 0.0
0.021638764046038907 -0.004572832679232489 0.0
0.018844633417942593 -0.005208358907660839 0.0
0.01613386664746225 -0.005607988191125663 0.0
0.013472907036413169 -0.005868467127913077 0.0
0.010814589888573317 -0.006026060365098084 0.0
0.008116588380542213 -0.006096649732705214 0.0
0.005370367893526512 -0.006111132487379817 0.0
0.002577456491399767 -0.00891247537006755 0.0
0.002585178737260426 -0.011749943262601007 0.0
0.0026378779832528527 -0.014631555794044779 0.0
0.002759699682167613 -0.017543797565163763 0.0
0.0029621828468684333 -0.020445395155692117 0.0
0.003238360160839944 -0.02329774020048526 0.0
0.0035908042321005787 -0.026112452809028002 0.0
0.004003343130354594 -0.028826245123756512 0.0
0.004475767596532858 -0.03143771781443991 0.0
0.00501214392928636 -0.03394276577772708 0.0
0.005571082022436551 -0.036315299104920686 0.0
0.006198973442939893 -0.03856038345144957 0.0
0.006834834252223108 -0.04066517632570866 0.0
0.00753429189622481 -0.042622621272331664 0.0
0.00825989767948667 -0.04443361130386509 0.0
0.009021029117537374 -0.04608469222323275 0.0
0.009797013832776428 -0.04753467011591109 0.0
0.010617999583803543 -0.04888873637505412 0.0
0.011458393284269718 -0.05002591312482198 0.0
0.01229041791367105 -0.050994215317038516 0.0
0.013151888596567757 -0.05179436566104473 0.0
0.01403213835423957 -0.05240437416978014 0.0
0.01487403480732156 -0.05283150919905856 0.0
0.015748347581531652 -0.05307983356470536 0.0
0.01747977820129918 -0.05300566925551576 0.0
0.01831327140956955 -0.052706102299990815 0.0
0.019137792786045667 -0.05222841150621278 0.0
0.019979835082526192 -0.05158146593817415 0.0
0.02081195743701485 -0.05073264990911015 0.0
0.02163876168297848 -0.04971311339110074 0.0
0.022409757007941573 -0.048532369701178656 0.0
0.023187567252307285 -0.047181352062444976 0.0
0.023937743213097287 -0.04567585426506411 0.0
0.02467516175891733 -0.044006486533169756 0.0
0.02536226240810336 -0.04214876468454585 0.0
0.02604109005663199 -0.04020447408632357 0.0
0.02666966778448531 -0.03808416829011392 0.0
0.02725997976906699 -0.035830624812012685 0.0
0.027830288074982154 -0.033449746840356245 0.0
0.02834704919718318 -0.03094840508902147 0.0
0.028799867581471898 -0.02834451487709337 0.0
0.02921630445182574 -0.025631831753702955 0.0
0.029553981999260164 -0.02284180943350161 0.0
0.029824225700054063 -0.019982875149149492 0.0
0.030011881053356268 -0.017097266979676867 0.0
0.030123979425873124 -0.014197161436544238 0.0
0.030178935948244962 -0.011327587184225866 0.0
0.030192088300079453 -0.00849450415522643 0.0
0.027404759837480162 -0.005705954823939736 0.0
0.02466491433063732 -0.005692031710052451 0.0
0.021977138819295104 -0.0056271544837266565 0.0
0.019318080707889762 -0.005477743221518018 0.0
0.01666833486076426 -0.005202134466517969 0.0
0.013967469899974935 -0.004810942446904304 0.0
0.011182416774533115 -0.004186011386575532 0.0
0.00817572718131095 -0.0033222773023936156 0.0
0.004609030277177738 -0.0018774863186062781 0.0
0.016078995747018383 -0.027241275033821084 0.0
0.01607975446748841 -0.04143374047316516 0.0
0.016457735851684217 -0.05059770420363316 0.0
0.016434425763005342 -0.021813814207353746 0.0
0.01613591611068415 -0.037607217555004194 0.0
0.016263663975479778 -0.04854546806637408 0.0
0.01643615473898921 -0.05339589971237223 0.0
0.01929169844837098 -0.016568272582357796 0.0
0.01685898563237764 -0.05313496445400433 0.0
0.012909470808222644 -0.03493638610564828 0.0
0.014185342586218584 -0.046693155010217216 0.0
0.012531183194700618 -0.030369983082514387 0.0
0.013740231035039912 -0.043762686216308695 0.0
0.015383271733420058 -0.051830562892634886 0.0
0.01884687596868197 -0.04653331249817767 0.0
0.019890503773503623 -0.035124576279090276 0.0
0.017746932472436878 -0.051662752124535374 0.0
0.019435772829296795 -0.04380205544528575 0.0
0.020707374938496163 -0.030349668877601238 0.0
0.01552012792787208 -0.05267375312567078 0.0
0.011975764246650637 -0.01989712846660272 0.0
0.021343132210950015 -0.014677938345662854 0.0
0.01108476329625585 -0.014862531377891128 0.0
0.01632374567727347 -0.05346631362102047 0.0
0.022382026167144915 -0.023648654244416683 0.0
0.018183760037953283 -0.051644295879228766 0.0
0.01635527692144342 -0.05345002499968569 0.0
0.010531069611594631 -0.028985846951249318 0.0
0.01181558240819521 -0.04023780244636176 0.0
0.013874499883171753 -0.04984348718025107 0.0
0.009614401345730089 -0.02392825798894547 0.0
0.011226524811121378 -0.03629688669451006 0.0
0.013163966896639906 -0.04762757942512557 0.0
0.020594334721154385 -0.042391404328547475 0.0
0.019131713541349214 -0.04916233871739889 0.0
0.021124801252884053 -0.03878438102630325 0.0
0.02270337139468381 -0.02378510388500877 0.0
0.009902344462086116 -0.0124102113439848 0.0
0.017365016401401364 -0.053048525645018274 0.0
0.022955161807269225 -0.02959804889074663 0.0
0.023982057146398447 -0.011998654095927291 0.0
0.015197303967283617 -0.05282045652374906 0.0
0.01963723361041586 -0.04920031151381222 0.0
0.015868147846547106 -0.011560729635555593 0.0
0.016174327159452686 -0.011711134194745532 0.0
0.016404292076830786 -0.053547767976033 0.0
0.013271464522866759 -0.05023120340043778 0.0
0.010868276769903621 -0.0406805597239779 0.0
0.01164111976819983 -0.04405874517251138 0.0
0.022332797904358583 -0.038513857877610524 0.0
0.02294944398892537 -0.03443497226341488 0.0
0.02064482924827111 -0.04649099949667483 0.0
0.0163742422367346 -0.022034532157573672 0.0
0.024500082919727047 -0.018453386075925476 0.0
0.01640505012243971 -0.05220821353523822 0.0
0.016494880580694947 -0.04517628461355281 0.0
0.016487851411123734 -0.05100248698584509 0.0
0.01648265035785772 -0.03252596017808049 0.0
0.016520165332457423 -0.04211287990398163 0.0
0.01625380520146841 -0.02775494277585028 0.0
0.01651112528313561 -0.037364704523282284 0.0
0.016363317646951436 -0.032994237355215415 0.0
0.01639758381788367 -0.045639705840817335 0.0
0.016421039825729945 -0.0482557082097369 0.0
0.016456725818283165 -0.05252712803181328 0.0
0.017275811954483213 -0.05318138852092802 0.0
0.013930628791401778 -0.051418650765301555 0.0
0.008251947128487019 -0.024294471078021997 0.0
0.007617993396901923 -0.018748878132202003 0.0
0.025332081552499924 -0.018860129157427817 0.0
0.015363943214663547 -0.05304847384346242 0.0
0.025652851001603468 -0.010411745212985941 0.0
0.007200051711563725 -0.010670217161127735 0.0
0.008834878340693375 -0.032883305547670036 0.0
0.012215226980335493 -0.047846994801683244 0.0
0.008436887771336663 -0.02841588648471352 0.0
0.011308903404393235 -0.04487977006444011 0.0
0.02146656677225381 -0.04528394139519719 0.0
0.019313736466113462 -0.05091673326372506 0.0
0.022350363160361392 -0.04230664660156897 0.0
0.024570563597697437 -0.0282322382030836 0.0
0.017102035545289385 -0.01701649346646169 0.0
0.014050225534968885 -0.0517136013117565 0.0
0.007228071272266187 -0.017246190456273503 0.0
0.009228732397313172 -0.03709973045797167 0.0
0.00846464606739327 -0.032776239042350566 0.0
0.015283049215700206 -0.051294654981955894 0.0
0.012844217218953242 -0.024841585219003696 0.0
0.012437200404682143 -0.020214045115199128 0.0
0.02412298589771164 -0.03413635302498159 0.0
0.01529619799953574 -0.01662938911632057 0.0
0.01394378243364507 -0.04314440450025425 0.0
0.014848131889975642 -0.04968315834042027 0.0
0.013555211685696204 -0.03960723660216722 0.0
0.019043145003531832 -0.039540418516392485 0.0
0.01930318393720745 -0.03555827652689182 0.0
0.018254190784345828 -0.04726947685207098 0.0
0.01825385126682856 -0.05241683562350756 0.0
0.019798984381453985 -0.01010650172008892 0.0
0.01843702123498304 -0.05218458478657585 0.0
0.020115238460720556 -0.009690332902436755 0.0
0.012077326454502808 -0.010297492413334471 0.0
0.01593315433320569 -0.05293795507222407 0.0
0.020399568606644946 -0.019940838720200783 0.0
0.016928009630321587 -0.05332605313515202 0.0
0.01777926998863274 -0.04956436361462601 0.0
0.01921478012632022 -0.030070022244959516 0.0
0.016300251564954307 -0.05309632222837808 0.0
0.01669621980733486 -0.05343582919904248 0.0
0.025209906733740274 -0.02620674747754477 0.0
0.007318244358443997 -0.008338408048670445 0.0
0.021114066783529326 -0.047568308400564877 0.0
0.015770912204416655 -0.053236679567989116 0.0
0.01963111696572562 -0.05078220728758469 0.0
0.016596605024045037 -0.053474959780776585 0.0
0.012562499804311516 -0.008800064861873277 0.0
0.013328818709641664 -0.03150988718547254 0.0
0.012766043801127808 -0.026395902089682555 0.0
0.01372060844545889 -0.03822131521632361 0.0
0.01478690504132823 -0.04873726075312092 0.0
0.013382602078288345 -0.03402802246052422 0.0
0.01439071409501014 -0.04623771396915738 0.0
0.018225837780655774 -0.04334637400419006 0.0
0.019018388594579088 -0.024853471084693025 0.0
0.01839642113356548 -0.03997646983207789 0.0
0.017520859516278155 -0.04987231947706504 0.0
0.01692890380352785 -0.05298445118568595 0.0
0.01598320652599406 -0.05329520371010738 0.0
0.009870802722415181 -0.04172331260808902 0.0
0.00896003598528035 -0.03800355666757225 0.0
0.011775963619619622 -0.04873560560617195 0.0
0.026140475526952908 -0.02185621302507628 0.0
0.023779060721770356 -0.040800139571257256 0.0
0.02108881069875221 -0.048111757090513935 0.0
0.024151956424187965 -0.03710354027513528 0.0
0.017304543657735306 -0.05145813150424078 0.0
0.014648841372102726 -0.05253831961967205 0.0
0.020662576444379008 -0.020566641376030405 0.0
0.019127479351485115 -0.024563200896281757 0.0
0.012898414671174299 -0.05040576083675686 0.0
0.006492057633363971 -0.01495537524978029 0.0
0.026726124234799007 -0.0144562014153991 0.0
0.007206458185781979 -0.02742871242372566 0.0
0.016685954813730305 -0.053334905786940126 0.0
0.016057973826110707 -0.05329926512116319 0.0
0.01725788497956849 -0.05242950717116422 0.0
0.02210002335613318 -0.04441719288715978 0.0
0.025009181750290974 -0.031445517052817 0.0
0.016140132043241908 -0.05338014350529052 0.0
0.006874356436904937 -0.024879106735494046 0.0
0.026953265233053452 -0.014585726278646353 0.0
0.026801089764466105 -0.009506440761256583 0.0
0.026062184819002 -0.02197190486661163 0.0
0.010240054313637281 -0.04294139955608273 0.0
0.0110061926406037 -0.04594100050227071 0.0
0.012287846536985314 -0.015198466530005695 0.0
0.006305753508134179 -0.02045664137667332 0.0
0.021395680074620872 -0.026965715507608488 0.0
0.010821148784577468 -0.04671747522603024 0.0
0.014253182012689573 -0.04108995067512838 0.0
0.014935653890246023 -0.0483326689080612 0.0
0.013953149810530481 -0.03725733582006127 0.0
0.005837584300749869 -0.013607320644596755 0.0
0.02527973673673587 -0.03159796219522526 0.0
0.015212114737761292 -0.05031304067672285 0.0
0.019609946937974763 -0.044815814985435826 0.0
0.01831619156846167 -0.05064662514487404 0.0
0.020098454500646144 -0.04150644113030394 0.0
0.021405100798393646 -0.02714440478512533 0.0
0.018069178153654407 -0.052798127328809175 0.0
0.013759238951108432 -0.028118596748664047 0.0
0.022831978704327665 -0.0435566712969614 0.0
0.02371572047636351 -0.04029288258645405 0.0
0.020358640550275992 -0.049908020709550055 0.0
0.022744095473417367 -0.015366822305538664 0.0
0.01369298076959931 -0.01482678446090813 0.0
0.014401372816309196 -0.05232699254815194 0.0
0.0183757224894644 -0.05043436811285962 0.0
0.008640019157823987 -0.03938162946060851 0.0
0.0076982009365493455 -0.03534840244160164 0.0
0.017814974602946558 -0.052324133674654175 0.0
0.013325495931438893 -0.02380437328684846 0.0
0.02222054831790104 -0.03312321208504344 0.0
0.018771456523070267 -0.013335206624335657 0.0
0.019216643884270995 -0.0516928794070429 0.0
0.023209827427399573 -0.007871639898865818 0.0
0.012045899334100526 -0.049062615913599734 0.0
0.007150884223081288 -0.030466137240052572 0.0
0.017491593083224843 -0.052884214373132794 0.0
0.012965505976504827 -0.050823351864529714 0.0
0.018837702014675474 -0.0483826874351559 0.0
0.024782009610712676 -0.03688559239547723 0.0
0.016425801595859286 -0.05354816035485287 0.0
0.016990927477938296 -0.008773537725033162 0.0
0.015363326285646914 -0.05255135499332348 0.0
0.016100156494629484 -0.05182837924792773 0.0
0.015249270763621198 -0.030409339990775615 0.0
0.01559439504126748 -0.04378072629804177 0.0
0.015420449401754972 -0.034949458000775854 0.0
0.015740326114747665 -0.046693755570268385 0.0
0.00603735989069445 -0.02130746181964508 0.0
0.01736809832849094 -0.008488466939404488 0.0
0.020670896907331267 -0.04950899826238855 0.0
0.01642796664679821 -0.0535424315694664 0.0
0.01601039159747896 -0.05336162847507175 0.0
0.012994135626031796 -0.011650154127424777 0.0
0.026751204206612277 -0.02490918656088942 0.0
0.020795760360919038 -0.03322445753968209 0.0
0.020843215336000195 -0.037248016284408554 0.0
0.01933688690250414 -0.04574215631203238 0.0
0.012877830069679847 -0.0418124487168105 0.0
0.013403710510698108 -0.04504178158251377 0.0
0.014727412269913608 -0.05091979919654086 0.0
0.007483618708361952 -0.03495630411713132 0.0
0.006669575714287001 -0.030407000183151123 0.0
0.013710568832112476 -0.049027713671942565 0.0
0.01172374577580649 -0.03859385882515076 0.0
0.012317075328439911 -0.042255819194750716 0.0
0.018969753406256236 -0.03263959284114128 0.0
0.01836881652163163 -0.01397331436718537 0.0
0.00962617206884851 -0.008786746360359659 0.0
0.02269857161928501 -0.0075649971602189964 0.0
0.017245214152187962 -0.04666064566316478 0.0
0.017689295879360637 -0.03514283288729686 0.0
0.016884060873028305 -0.0517384071801351 0.0
0.017402927537265748 -0.043721585204475936 0.0
0.017774428895606282 -0.030190867319050643 0.0
0.02551504101107635 -0.029011036750010353 0.0
0.009912035817275617 -0.0067277647488212956 0.0
0.020859623252737 -0.04055691190469418 0.0
0.019450642251104287 -0.04794270112203242 0.0
0.021358969318046858 -0.03670614788719013 0.0
0.0154697052338801 -0.03947212728535613 0.0
0.015803179744230896 -0.047233973444379886 0.0
0.015317759303792573 -0.03540355876337465 0.0
0.018041850032872682 -0.052784626672305726 0.0
0.0158942087919322 -0.04956936023217862 0.0
0.011600018085333048 -0.036835764248436584 0.0
0.011078056727481042 -0.03247259193702525 0.0
0.019371107121185546 -0.05156513457383796 0.0
0.016941949110597977 -0.05329401698268718 0.0
0.013818697349431083 -0.022258389021290827 0.0
0.015369372344829818 -0.024563119712763933 0.0
0.015030143193205827 -0.0191568100073551 0.0
0.014484398099636791 -0.0511704716836886 0.0
0.015437126532685617 -0.03000458735801887 0.0
0.008608626070318107 -0.0397555094505346 0.0
0.009646976169057811 -0.0432415784813284 0.0
0.016528221410155433 -0.05333103550857283 0.0
0.024856108190736755 -0.034946320282226453 0.0
0.021796887231002725 -0.04676985080082885 0.0
0.012693342214134607 -0.04645780625662704 0.0
0.012020601306282326 -0.04344773237290328 0.0
0.010562491460995365 -0.025378508861278206 0.0
0.02771313411870157 -0.006933182888120124 0.0
0.005521773383972875 -0.009058604069209466 0.0
0.017394737393052005 -0.018807429412156643 0.0
0.017105259094283332 -0.052507474614215115 0.0
0.016105256314206163 -0.05152747366068716 0.0
0.015741516129539494 -0.05213115470380332 0.0
0.014432240213748395 -0.008744730160208275 0.0
0.014922186303640977 -0.05283647042393668 0.0
0.027103359860178738 -0.018863173164311197 0.0
0.015556982090105071 -0.02478276924179236 0.0
0.021677162548911142 -0.012875053413523043 0.0
0.014956883293960369 -0.05192008890579175 0.0
0.01587987558359099 -0.043406103123882205 0.0
0.016051203077209336 -0.04994598990050625 0.0
0.015723040102661644 -0.0400703979659927 0.0
0.010690820131192599 -0.02264945430584081 0.0
0.010892238983509252 -0.03154470087043566 0.0
0.010419645897359647 -0.02662912227841851 0.0
0.01360095328978566 -0.04870689826552646 0.0
0.01290415758641892 -0.04615990892270495 0.0
0.0167122991556283 -0.052815092716492464 0.0
0.013115635584454279 -0.05127208452974706 0.0
0.02275691029929724 -0.021176130204324663 0.0
0.02296993390099469 -0.030359154454540384 0.0
0.02097779725002285 -0.043764014751297826 0.0
0.015947695491198143 -0.052521071133383904 0.0
0.018411705913868513 -0.05172495856763759 0.0
0.005487380131030209 -0.024804960155657245 0.0
0.009920827671240334 -0.020798281758624356 0.0
0.010424387065138999 -0.01787924087383382 0.0
0.019053334662865313 -0.02734442545604208 0.0
0.018131295490151116 -0.04490805380009664 0.0
0.01842731529627409 -0.04174678592960192 0.0
0.017443192298626425 -0.05078620336622398 0.0
0.020312355907717163 -0.046846757808328365 0.0
0.014936681247094137 -0.04508875063592032 0.0
0.015601743748941207 -0.0509408592093328 0.0
0.01466903732354373 -0.04191527265636817 0.0
0.026959122489808605 -0.011966673619198067 0.0
0.01635712341110544 -0.053076433631820956 0.0
0.019120681500052868 -0.041593702423023765 0.0
0.019299897736458408 -0.03821485569834829 0.0
0.01811709087261059 -0.04887283247538787 0.0
0.017676119757591313 -0.04812734562613789 0.0
0.01209594597306548 -0.04968878254348231 0.0
0.01670637421102257 -0.05343292351802911 0.0
0.017959372735938634 -0.04545025118308 0.0
0.01868730187348445 -0.032738881490890374 0.0
0.01862151615967904 -0.022068207173800865 0.0
0.02198928328588102 -0.04626350618504714 0.0
0.01009277795528442 -0.012138625043436433 0.0
0.02225984737610529 -0.011506780521409429 0.0
0.02430659610364771 -0.03912723512269694 0.0
0.009114573038330343 -0.0199696227712626 0.0
0.015149494070311176 -0.05275207658299579 0.0
0.022534109322624264 -0.017501979897668087 0.0
0.021880811381362553 -0.017764602878827515 0.0
0.017351902172635866 -0.050611382582636054 0.0
0.017351559825737353 -0.05312219780780126 0.0