<VTKFile type="UnstructuredGrid"  version="0.1">
<UnstructuredGrid>
<Piece NumberOfPoints="713" NumberOfCells="1304">
<Points>
<DataArray type="Float64" NumberOfComponents="3" format="ascii">
0.0 0.0 0.0
10.0 0.0 0.0
10.0 2.0 0.0
5.0 2.0 0.0
0.0 2.0 0.0
0.199999999999856 0.0 0.0
0.3999999999996677 0.0 0.0
0.5999999999994683 0.0 0.0
0.7999999999993286 0.0 0.0
0.9999999999991888 0.0 0.0
1.199999999999033 0.0 0.0
1.399999999998576 0.0 0.0
1.599999999997992 0.0 0.0
1.799999999997408 0.0 0.0
1.999999999996825 0.0 0.0
2.199999999996241 0.0 0.0
2.399999999995657 0.0 0.0
2.599999999995073 0.0 0.0
2.79999999999449 0.0 0.0
2.999999999993906 0.0 0.0
3.199999999993322 0.0 0.0
3.399999999992738 0.0 0.0
3.599999999992154 0.0 0.0
3.799999999991571 0.0 0.0
3.999999999991022 0.0 0.0
4.199999999991187 0.0 0.0
4.399999999991491 0.0 0.0
4.599999999991795 0.0 0.0
4.799999999992099 0.0 0.0
4.999999999992403 0.0 0.0
5.199999999992706 0.0 0.0
5.39999999999301 0.0 0.0
5.599999999993313 0.0 0.0
5.799999999993618 0.0 0.0
5.999999999993922 0.0 0.0
6.199999999994227 0.0 0.0
6.39999999999453 0.0 0.0
6.599999999994833 0.0 0.0
6.799999999995138 0.0 0.0
6.999999999995442 0.0 0.0
7.199999999995747 0.0 0.0
7.39999999999605 0.0 0.0
7.599999999996353 0.0 0.0
7.799999999996658 0.0 0.0
7.999999999996962 0.0 0.0
8.199999999997265 0.0 0.0
8.399999999997569 0.0 0.0
8.599999999997873 0.0 0.0
8.799999999998176 0.0 0.0
8.99999999999848 0.0 0.0
9.199999999998786 0.0 0.0
9.399999999999089 0.0 0.0
9.599999999999392 0.0 0.0
9.799999999999697 0.0 0.0
10.0 0.1999999999996293 0.0
10.0 0.3999999999991157 0.0
10.0 0.5999999999985328 0.0
10.0 0.7999999999979498 0.0
10.0 0.9999999999973885 0.0
10.0 1.199999999997894 0.0
10.0 1.39999999999842 0.0
10.0 1.599999999998947 0.0
10.0 1.799999999999474 0.0
9.799999999999999 2.0 0.0
9.6 2.0 0.0
9.399999999999999 2.0 0.0
9.2 2.0 0.0
8.999999999999998 2.0 0.0
8.799999999999999 2.0 0.0
8.599999999999998 2.0 0.0
8.399999999999999 2.0 0.0
8.2 2.0 0.0
7.999999999999998 2.0 0.0
7.799999999999999 2.0 0.0
7.599999999999999 2.0 0.0
7.399999999999999 2.0 0.0
7.199999999999999 2.0 0.0
7.0 2.0 0.0
6.799999999999999 2.0 0.0
6.6 2.0 0.0
6.399999999999999 2.0 0.0
6.199999999999999 2.0 0.0
5.999999999999999 2.0 0.0
5.8 2.0 0.0
5.6 2.0 0.0
5.399999999999999 2.0 0.0
5.199999999999999 2.0 0.0
4.8 2.0 0.0
4.6 2.0 0.0
4.399999999999999 2.0 0.0
4.199999999999998 2.0 0.0
3.999999999999999 2.0 0.0
3.799999999999999 2.0 0.0
3.599999999999999 2.0 0.0
3.399999999999999 2.0 0.0
3.199999999999998 2.0 0.0
2.999999999999999 2.0 0.0
2.799999999999999 2.0 0.0
2.599999999999999 2.0 0.0
2.399999999999999 2.0 0.0
2.199999999999999 2.0 0.0
2.0 2.0 0.0
1.799999999999999 2.0 0.0
1.599999999999999 2.0 0.0
1.399999999999999 2.0 0.0
1.199999999999999 2.0 0.0
0.9999999999999991 2.0 0.0
0.7999999999999998 2.0 0.0
0.5999999999999996 2.0 0.0
0.3999999999999995 2.0 0.0
0.1999999999999993 2.0 0.0
0.0 1.799999999999167 0.0
0.0 1.6 0.0
0.0 1.400000000001387 0.0
0.0 1.200000000002774 0.0
0.0 1.000000000004117 0.0
0.0 0.8000000000033287 0.0
0.0 0.6000000000024965 0.0
0.0 0.4000000000016644 0.0
0.0 0.200000000000832 0.0
1.499207686858938 0.9671416246672391 0.0
2.690335006295381 0.9619521672166851 0.0
3.892537609238439 1.007271393615351 0.0
8.916602958236062 0.9848120741100651 0.0
7.714518201951718 1.024234589865042 0.0
6.514518201951581 1.024234589865268 0.0
5.299999999999998 1.000000000000349 0.0
0.7620577975594133 1.201991596673393 0.0
4.61755859746166 1.240410629378135 0.0
2.099999999996533 0.6749999999988996 0.0
3.289480163184942 0.6802242156869155 0.0
8.299999999999976 1.325000000000064 0.0
7.110519836808121 1.319775784312006 0.0
5.893184537067197 1.292851873188582 0.0
3.268568008578649 1.341967835735878 0.0
2.118368267083699 1.321829331075689 0.0
5.930896443153832 0.6493414313150682 0.0
7.106926174231782 0.6329785805444448 0.0
8.306926174233002 0.6329785805444098 0.0
4.427960725065653 0.6389803625370323 0.0
0.9828791719046732 0.6520555711814596 0.0
9.383333333333349 0.6166666666667164 0.0
9.383333333333326 1.383333333333367 0.0
4.974443803660211 0.5526668589022862 0.0
1.248084267804327 1.464555585366204 0.0
4.139486343919472 1.468449088519687 0.0
5.077806736162063 1.478342020848787 0.0
1.629462398503482 0.5098631373669138 0.0
2.579462070540726 0.5133714280880515 0.0
3.770778974032556 0.5099482598296803 0.0
8.764748922637567 1.526880805960684 0.0
7.820537929455645 1.486628571911716 0.0
6.632254923791462 1.492045881343967 0.0
2.796478414430566 1.477149214423874 0.0
6.403521585563812 0.5228507855762514 0.0
7.603521585564883 0.5228507855756581 0.0
8.783559188644787 0.5066440811355862 0.0
0.5060338924245764 0.5082251307884346 0.0
5.451633334958382 0.4799315318847731 0.0
1.683269995544083 1.547372422998862 0.0
0.448590368789599 1.551409631210402 0.0
5.545526974704655 1.582008455135239 0.0
3.666056976948354 1.56999765613834 0.0
0.4385739326402744 0.9352922270094057 0.0
9.58170539854767 0.9922137522194456 0.0
4.93200119575972 0.9247090920592975 0.0
6.20679636316332 1.642443126922768 0.0
7.418963044745086 1.587405313446662 0.0
2.98103695524982 0.412594686552066 0.0
2.420975602092416 1.592770352831584 0.0
7.97902439790374 0.4072296471687943 0.0
6.779024397902082 0.4072296471687297 0.0
1.130444757308209 0.9859238872709168 0.0
0.8901814758011342 1.60566856081121 0.0
4.263670373274499 0.9915754392410991 0.0
3.096698167273431 1.009056907826855 0.0
6.088506433998166 0.9857489435828969 0.0
1.902225037409936 1.003483800311746 0.0
7.288506433998439 0.9857489435828686 0.0
8.498964973312972 1.005823551167602 0.0
2.307571737417198 1.008136792450924 0.0
8.100397971125554 1.000138280273345 0.0
6.900397971125225 1.000138280273792 0.0
3.499307350770321 0.9996496628144824 0.0
5.703656022566558 0.9885479657552226 0.0
4.719420624357892 1.622286409566126 0.0
4.099803549896894 0.3600308081356619 0.0
1.286100671532495 0.3637431910670685 0.0
9.120549139677793 1.655065205594329 0.0
9.11726214008418 0.3400668903113251 0.0
4.642568097328033 0.3514924793220939 0.0
9.630437629189052 0.3309104953729904 0.0
9.674493769554315 1.668196579944218 0.0
1.936458797611609 0.3337070483410596 0.0
3.461817573918652 0.3447876019040473 0.0
8.440152788772068 1.649667667046397 0.0
6.973083089482548 1.643748677366674 0.0
3.126874515006838 1.659115470008545 0.0
6.070607878384977 0.3410183041038941 0.0
7.255014454789089 0.32792256737713 0.0
8.462493615948901 0.3368393217476116 0.0
9.236261261261264 0.9276047786917867 0.0
5.885444386845415 1.667751020273455 0.0
0.8062340689595878 0.3261579034781319 0.0
2.29463843780282 0.308358158429197 0.0
8.10536156219338 1.691641841570632 0.0
4.041916759198581 0.7211683801597477 0.0
1.324377365289917 0.710525897087282 0.0
9.023167917315867 1.292262965009952 0.0
2.044244009166302 1.693807225416931 0.0
0.7675765545556328 0.8969765944392112 0.0
2.86965991063896 0.7069213925303978 0.0
6.330340089355722 1.293078607468788 0.0
7.530340089355831 1.29307860746885 0.0
2.509347777214458 1.27231292939881 0.0
7.890652222779963 0.7276870706009825 0.0
6.690652222780154 0.7276870706013264 0.0
4.380959112578968 1.65866292149053 0.0
0.3278422400819535 1.233362752678148 0.0
5.754468991464942 0.3469215055361071 0.0
9.69195804401614 0.7000195364707393 0.0
9.691250997975434 1.303243780084337 0.0
5.54324561063747 1.237401556904767 0.0
9.044596057577811 0.6843248705785732 0.0
5.208929198448351 0.3519433027337513 0.0
3.708880196230617 1.249762029554333 0.0
1.713349558540635 1.234899745098077 0.0
4.586522821995393 0.9261740906803194 0.0
5.241145838821565 0.7007005766013242 0.0
1.434457446926135 1.701926055218157 0.0
0.2821921707428039 0.3393165318407161 0.0
3.42846431357046 1.714274134409306 0.0
5.26283485467567 1.710141275531951 0.0
3.966530105129177 1.718376080180638 0.0
4.891301048299285 1.259923533724591 0.0
0.2787500712946937 0.6906723798523376 0.0
1.822166578929051 0.7301892210727335 0.0
8.593276160688786 1.287322908694633 0.0
2.386017956680413 0.7288816957021155 0.0
3.576911792171353 0.7225526638483954 0.0
8.013982043315597 1.271118304297217 0.0
6.82303669320588 1.277631295759485 0.0
2.891837633696712 1.215141906356511 0.0
8.708162366297856 0.7848580936429009 0.0
7.496736072543097 0.7897651325976158 0.0
6.296736072542775 0.7897651325982009 0.0
5.523181420933933 0.7588744249744506 0.0
4.725538117155759 0.6529070682798582 0.0
2.736307197014292 0.273961667653487 0.0
7.663692802980817 1.726038332346062 0.0
6.446842959287713 1.783714797320288 0.0
1.126188383272983 1.743715177525389 0.0
2.64757240694847 1.787239829472812 0.0
6.546646507559373 0.2589894635657943 0.0
7.746646507561152 0.2589894635657218 0.0
4.079302268890254 1.221431431691139 0.0
4.433746883463333 0.2983726043497702 0.0
1.032697650548726 1.318076986199429 0.0
1.309492735411376 1.208980965369829 0.0
3.896105387998365 0.2579746081881307 0.0
9.378751775005455 1.725996478164223 0.0
9.3965279828929 0.2649862374471925 0.0
1.515757555362918 0.2603060454608533 0.0
4.959097093232828 1.726144293543605 0.0
4.912501341257775 0.2529154558175828 0.0
4.342421824442713 1.285376618065631 0.0
7.023506283123107 0.293611963231815 0.0
8.215829626877609 0.2682061590942965 0.0
5.28145265730745 1.291130016052329 0.0
8.693992162747364 1.744100892812201 0.0
0.6256567126095668 1.775064851453201 0.0
0.2724967459749605 1.756941612685287 0.0
8.90781713264278 0.2741674349222226 0.0
7.184202236567151 1.709454269177068 0.0
3.212962614055919 0.2641656831057426 0.0
0.6761590188374282 0.6746441670621973 0.0
1.020489328989316 0.2487299689497893 0.0
1.485017749467193 1.402133856149482 0.0
6.734223224917944 1.790518105434539 0.0
2.657549589911705 0.7636227781082678 0.0
6.542590471647475 1.237213715285722 0.0
7.742745187066703 1.235538225115726 0.0
0.5794341726414672 0.2480285055479751 0.0
1.842901067642841 1.760146518280044 0.0
3.84389577648662 0.7524680119172447 0.0
3.061589173628368 1.407936939342627 0.0
6.144447294584154 0.5911674363009913 0.0
7.344447294585433 0.5911674362995804 0.0
8.544447294586682 0.5911674362982269 0.0
5.491507940982565 0.1734458797927824 0.0
[...]
<PointData Vectors="fields">
<DataArray type="Float64" Name="U" NumberOfComponents="3" format="ascii">
0.0 0.0 0.0
0.03625547599534812 0.0 0.0
0.0030007885353658024 -0.006728501778063362 0.0
0.017965092765229524 -0.057988108197616184 0.0
0.033136070245972336 -0.006307705906630457 0.0
0.00039020806609142006 -0.006940357622542165 0.0
0.0011480052849491347 -0.011388223723609418 0.0
0.0018293096494298232 -0.015323698913412467 0.0
0.002398991111754593 -0.01878043765484944 0.0
0.0028984473040713395 -0.022080104986453537 0.0
0.003380732302127208 -0.02525023212324198 0.0
0.003865898259848791 -0.028301365846867748 0.0
0.004398992296409389 -0.03125023035966325 0.0
0.004949507382246471 -0.034098115445019124 0.0
0.005543884821889871 -0.0368140289986078 0.0
0.006168072014497007 -0.03939677474766747 0.0
0.0068485278535715625 -0.041848731026107214 0.0
0.007541165617809496 -0.04414866578963966 0.0
0.008304823576119315 -0.04629672329474771 0.0
0.009065986566015479 -0.04828331413938278 0.0
0.009889431921775205 -0.050099990062417735 0.0
0.010716036425200077 -0.05173080083942512 0.0
0.011585384197827486 -0.05318839216791659 0.0
0.01246170343598633 -0.05442412790574113 0.0
0.013346366647880302 -0.0555305145117999 0.0
0.014266469189451535 -0.056418000154871605 0.0
0.015175850249612152 -0.05710417865495128 0.0
0.01611186061736064 -0.05760200942612744 0.0
0.017032075748561845 -0.05789060533548937 0.0
0.017989981476735896 -0.057990602207080924 0.0
0.018921171440765504 -0.05789201606163312 0.0
0.019851635856886617 -0.057589644705306586 0.0
0.02077759922830661 -0.05709340438954643 0.0
0.0216914318227523 -0.05639651108441635 0.0
0.022579871361325814 -0.05551408445477664 0.0
0.023486440046359094 -0.054453793884532094 0.0
0.02434381976558841 -0.053154954543499326 0.0
0.025202965161981165 -0.05173504546342215 0.0
0.026022063212821266 -0.05013063850507213 0.0
0.026839013694564862 -0.04832565733274186 0.0
0.02760892260896962 -0.046358127057923186 0.0
0.028350443847986104 -0.04423745451900636 0.0
0.02903881470124295 -0.04192694370188284 0.0
0.02971198421777834 -0.03952442680960903 0.0
0.030333254768899694 -0.036976053490509954 0.0
0.030931621160130183 -0.03428548491632338 0.0
0.031482294191616536 -0.0314637996492662 0.0
0.032010146475723346 -0.028541586914705826 0.0
0.032492695543719315 -0.025507717802771782 0.0
0.03298609026952075 -0.022357243388255062 0.0
0.033470002327121835 -0.019094025845082015 0.0
0.03400847800904457 -0.015646568841606256 0.0
0.03460558356192658 -0.011904927932221795 0.0
0.03553206860608814 -0.007448691630615493 0.0
0.030610835759718256 -0.002663125300000989 0.0
0.02697469062180631 -0.004118574482939173 0.0
0.023672407847930205 -0.00504236931284573 0.0
0.020642765875626624 -0.005739788122944454 0.0
0.017702930097458457 -0.006177387420190236 0.0
0.01481701122357149 -0.0064622582866080145 0.0
0.0119337072900782 -0.0066347171936281795 0.0
0.00900714202438933 -0.006712109659163788 0.0
0.006028284682213097 -0.006728155425529768 0.0
0.0029986334613965816 -0.009767223316174153 0.0
0.003007282929850831 -0.012845390166002866 0.0
0.0030648345089897117 -0.01597087328117294 0.0
0.0031969173671331447 -0.01912850574504918 0.0
0.0034149582559861013 -0.02227334076067426 0.0
0.0037109325597926837 -0.025363990321293488 0.0
0.004087767678500682 -0.028413928471833615 0.0
0.004529131135420847 -0.03135563527700307 0.0
0.005036219311939037 -0.034188019484671914 0.0
0.0056142775332537476 -0.03690742746352992 0.0
0.006219035901189002 -0.03948495449773423 0.0
0.006899559669770284 -0.04192617890134981 0.0
0.00758765565840871 -0.04421616108869224 0.0
0.008340653543219358 -0.04634730948109393 0.0
0.009115110929068597 -0.04832048768010851 0.0
0.009919801191330551 -0.05012163821253747 0.0
0.010731836961743707 -0.05170666601683174 0.0
0.011588126997309035 -0.05318959104501963 0.0
0.012463919370902451 -0.054441074684856 0.0
0.013334683138136984 -0.05551275443056274 0.0
0.014243951259650669 -0.05640502927846196 0.0
0.01518151568856645 -0.057094445514404665 0.0
0.01608605753951588 -0.05758769902521624 0.0
0.017032293083007792 -0.05788871600900294 0.0
0.01891969306447602 -0.057873463902317505 0.0
0.019832568391345777 -0.05758111417640522 0.0
0.02073840929720097 -0.057094112409356655 0.0
0.02166751239694831 -0.05642164558095603 0.0
0.02259207574853554 -0.05552629045939797 0.0
0.023517797866118427 -0.054441098309400034 0.0
0.024388788046082552 -0.05317616305487753 0.0
0.02527432885553952 -0.05172025026956153 0.0
0.026132712030659276 -0.0500911009245771 0.0
0.026976831346056482 -0.04827761611622702 0.0
0.02775997310796147 -0.04625233187796127 0.0
0.028529614562624952 -0.04413135347008802 0.0
0.029236059106669394 -0.04181336704722631 0.0
0.029895048823436077 -0.039347383019530585 0.0
0.030528624276659262 -0.03674002627328789 0.0
0.031101063154005536 -0.03399941059079064 0.0
0.031601916942833874 -0.031145218963970087 0.0
0.03206221510635031 -0.02817051725505448 0.0
0.03243539300539454 -0.02511030303624801 0.0
0.03273412038535341 -0.021973707460761622 0.0
0.03294156416114926 -0.018807581820263142 0.0
0.03306548370927589 -0.015625246694012454 0.0
0.03312620605844682 -0.012476651651822905 0.0
0.03314078581142162 -0.009368335699663792 0.0
0.030083020300872544 -0.006309225119591809 0.0
0.02707774592205949 -0.00629385083912532 0.0
0.02413004370488827 -0.006222140441872678 0.0
0.021213957789115362 -0.006056949742240549 0.0
0.01830827752974528 -0.0057522881067816785 0.0
0.015345911768805195 -0.005319749854181157 0.0
0.012290595839010132 -0.004628840741433622 0.0
0.008990204733713788 -0.003674086206945782 0.0
0.005070242492583552 -0.002076165209233556 0.0
0.017662855227616663 -0.02994456570926883 0.0
0.01765089531314247 -0.04549769185496822 0.0
0.018019237303747486 -0.055416570756534805 0.0
0.01802609583955624 -0.02375794520243674 0.0
0.01769836926074321 -0.040890522182262676 0.0
0.017810738916816546 -0.05280558391172696 0.0
0.0179695809224934 -0.0582217557852553 0.0
0.021186852615563245 -0.018229658302558172 0.0
0.018390001752818567 -0.05805714776756754 0.0
0.014192276986821817 -0.038384169093557616 0.0
0.01559370811697357 -0.051222716524282993 0.0
0.013783667790775897 -0.033030834510466206 0.0
0.015082943984583893 -0.04759030834940907 0.0
0.016791450907537784 -0.056429684138813496 0.0
0.020618099316730035 -0.05104946421589705 0.0
0.021830069357117624 -0.038585695654651066 0.0
0.019443739069172503 -0.05624499327262729 0.0
0.02128960456577304 -0.0476310619345865 0.0
0.022667862654103074 -0.03300532737141135 0.0
0.017045623097857728 -0.05758861000182747 0.0
0.013165885652718309 -0.02188531749641909 0.0
0.02334747139864527 -0.01602068283206034 0.0
0.01222499651165131 -0.016222503603243513 0.0
0.017921538305397215 -0.05835224860040869 0.0
0.02457139840183539 -0.025999736785624967 0.0
0.01980497274482086 -0.05651304684054445 0.0
0.017788543851846344 -0.05831849411308816 0.0
0.011585168563665477 -0.031858658119092775 0.0
0.013004049067518742 -0.044188267360250964 0.0
0.015276826995524625 -0.05460798801781754 0.0
0.01062434552141608 -0.0260482406201216 0.0
0.012361359109594555 -0.03946836141868072 0.0
0.014423654240615464 -0.051800972850863373 0.0
0.022564046402663997 -0.04653727711230259 0.0
0.020957938763037257 -0.0534852666165369 0.0
0.02313439811685387 -0.042165891003226916 0.0
0.024824951104079642 -0.02589278288762267 0.0
0.010891035939159915 -0.013663544384982242 0.0
0.01905308141381735 -0.05781705307002184 0.0
0.025194783238216594 -0.03252495863716731 0.0
0.026329251907154228 -0.01321340298994406 0.0
0.016516320130734858 -0.057556353388828516 0.0
0.021409073450947964 -0.05391542650992607 0.0
0.017434049343168122 -0.012731338800012017 0.0
0.017743999145928085 -0.012801994450373926 0.0
0.017949770820079296 -0.058450567913430326 0.0
0.01447523806867898 -0.054658376544988486 0.0
0.011970277667919638 -0.04423607815298434 0.0
0.012829124964089177 -0.048356917567010764 0.0
0.02449157467309237 -0.042294066175008534 0.0
0.025113847506555154 -0.037436899985197475 0.0
0.02261112309312464 -0.05056201067046337 0.0
0.017987794521356147 -0.024230851028179068 0.0
0.02689573915650804 -0.02029753678745538 0.0
0.0179523881548232 -0.05711108376551899 0.0
0.018090374501151453 -0.04957960013555735 0.0
0.018042815614091 -0.055508431999024256 0.0
0.018102609451266974 -0.035740467478422855 0.0
0.018111716502242303 -0.04579387820448541 0.0
0.017829279081839892 -0.030194380386131238 0.0
0.018128926699092423 -0.04104369416098323 0.0
0.0179474461692807 -0.03587683831452593 0.0
0.01796979342985473 -0.04963456210462369 0.0
0.01799545987819116 -0.05291292209965279 0.0
0.017999060315296862 -0.057213389853326094 0.0
0.018766635204893585 -0.05808624984627968 0.0
0.015360558804323432 -0.05627492241618808 0.0
0.009083585005233562 -0.026710989314845383 0.0
0.008463812346684845 -0.0204358018993859 0.0
0.027672472616759508 -0.020555804926682776 0.0
0.01691626486643455 -0.057955763760451647 0.0
0.02802108792935034 -0.011385186880918882 0.0
0.00801258880253849 -0.011674246063083874 0.0
0.009732082056800557 -0.03613174700776221 0.0
0.013478564569872238 -0.052462428348642995 0.0
0.009339963825548423 -0.03091170088012586 0.0
0.012432717905695905 -0.04880567668929627 0.0
0.02346873360970463 -0.04968357754677289 0.0
0.021172853759175093 -0.055419060081970214 0.0
0.02447371995358986 -0.04599846959524086 0.0
0.02685639943381434 -0.030709743050643768 0.0
0.018750035526917983 -0.01855852577715871 0.0
0.015278608445274584 -0.0563047672831449 0.0
0.007956469666607333 -0.018974647967256578 0.0
0.010172250626257946 -0.04075164436721804 0.0
0.009364110757524783 -0.03564266193591663 0.0
0.016781187853880778 -0.05615268556180128 0.0
0.01411840047937152 -0.027312265780535142 0.0
0.013690283246244349 -0.022024424420764604 0.0
0.02646693676724459 -0.03749780833951649 0.0
0.01680702672438286 -0.018297278724615076 0.0
0.015326010987827775 -0.04736542800172763 0.0
0.016241387500540622 -0.054051071662749625 0.0
0.01488967700053886 -0.043068522481264505 0.0
0.020890379425822243 -0.04342326178221434 0.0
0.021147011010020755 -0.038659493427065296 0.0
0.019994178676799618 -0.05141272882180208 0.0
0.019835002085029148 -0.057311081926178946 0.0
0.0217430483952704 -0.011135922482276957 0.0
0.020226480865913957 -0.05683364900352661 0.0
0.02201607328399388 -0.010604398449417034 0.0
0.013302016763184378 -0.01126908749734443 0.0
0.017383511922299463 -0.05768462895845098 0.0
0.02232562204186432 -0.021728255766262 0.0
0.01860114669662517 -0.05815744010273745 0.0
0.01942917764797187 -0.05431417660132258 0.0
0.021096572436765226 -0.033045535781765965 0.0
0.017842031824050503 -0.058021031305805985 0.0
0.018300076643831528 -0.05827364833249694 0.0
0.027669110408692077 -0.0288043227823675 0.0
0.008054261318728521 -0.00918790572997864 0.0
0.023033094608259894 -0.052154688694546765 0.0
0.017107629862818653 -0.05805336867591215 0.0
0.02134946863358754 -0.05559528153541002 0.0
0.01809616783324539 -0.058378833693768575 0.0
0.013808713352345767 -0.009697985872946794 0.0
0.01465017905613881 -0.03462738803756704 0.0
0.014042627369086963 -0.028722153699404472 0.0
0.015080106417957637 -0.041982848436629985 0.0
0.016245545334317144 -0.05342809056658861 0.0
0.014705836954160455 -0.03700165897913672 0.0
0.015778255379070537 -0.05028522537580355 0.0
0.019978579907957175 -0.04758460698675277 0.0
0.020829538529720575 -0.02705056336316614 0.0
0.02015918294653063 -0.04346622086231239 0.0
0.019187659299482965 -0.05426347408992119 0.0
0.01854280573150492 -0.05773740108133854 0.0
0.017540851293915753 -0.05821142424088588 0.0
0.010891444416735832 -0.04580764401025183 0.0
0.009899788699081546 -0.04132331979895315 0.0
0.012871360610632869 -0.05301680364310819 0.0
0.028692669116352147 -0.024031102625931677 0.0
0.02605338367398493 -0.04478964169231846 0.0
0.02310228826068003 -0.0523333086759943 0.0
0.026430064704515366 -0.04033549859406309 0.0
0.01889631151969832 -0.05632340207556129 0.0
0.016150085765986907 -0.05743716751060497 0.0
0.022688305887483634 -0.022618281460582677 0.0
0.02100424377494223 -0.027004835071425655 0.0
0.014246621169184837 -0.05519988003459546 0.0
0.0072443015249960135 -0.016322659461910777 0.0
0.02918601106947681 -0.01577880244850973 0.0
0.007940217868847927 -0.030148879892318684 0.0
0.01810077565688568 -0.05821073447967966 0.0
0.01767919869184932 -0.05817910330806844 0.0
0.018822998938968254 -0.05733659130217382 0.0
0.02420109837051097 -0.048298291236933334 0.0
0.027342338773429377 -0.03419260675576889 0.0
0.017592943352866167 -0.05820841521283261 0.0
0.007650334572665444 -0.027078124007215452 0.0
0.02958716467828038 -0.016052293692084846 0.0
0.029420878797722764 -0.010478582996415162 0.0
0.02846425622372055 -0.023927600693668345 0.0
0.011282418235472018 -0.04669564528768062 0.0
0.01215499466293608 -0.0503985722914113 0.0
0.01350826804289721 -0.01672623574763901 0.0
0.006945877010019421 -0.022498321639777396 0.0
0.023488305528138746 -0.02963930292594752 0.0
0.01187525879359834 -0.05080978810482368 0.0
0.015661185949907317 -0.04512185447104048 0.0
0.01635614325001321 -0.05257144072097836 0.0
0.015324036323533519 -0.040511809550118905 0.0
0.00642870956184604 -0.01497823538754826 0.0
0.027739012707041696 -0.034714907239851996 0.0
0.016702145452647643 -0.05511261712296369 0.0
0.0214658990352597 -0.04918234959154194 0.0
0.02006700196908884 -0.055118817577894705 0.0
0.02201508989165669 -0.045129935246777046 0.0
0.023420811624697377 -0.029531820977289958 0.0
0.019855770049624306 -0.0575366270331339 0.0
0.015121331343934287 -0.030907664045011086 0.0
0.024982783164818518 -0.047798776148234884 0.0
0.025961754158132764 -0.043804517699208824 0.0
0.022314037451740962 -0.05430571477437886 0.0
0.02497162059766458 -0.016910260179555332 0.0
0.015053550887775604 -0.01618374637506679 0.0
0.015633043566778637 -0.05699676745634567 0.0
0.020041553330470127 -0.05523724941595827 0.0
0.009537643653975825 -0.04324746800568443 0.0
0.008530071679005675 -0.03843617700027739 0.0
0.019530496887959724 -0.0569878976181822 0.0
0.01465201540458983 -0.02591432937399763 0.0
0.024385255736297504 -0.036389757050882016 0.0
0.02061686742980475 -0.014680154480140071 0.0
0.020872230261804355 -0.05655123462538082 0.0
0.025482238866667103 -0.008684509557624502 0.0
0.013312964639348213 -0.05376483553878027 0.0
0.007883642626727156 -0.03347992783172929 0.0
0.019030292616382744 -0.05779683316839057 0.0
0.014104250870979107 -0.05531648990639215 0.0
0.020576481703874033 -0.05304459758548412 0.0
0.027178981417200834 -0.040507190222630836 0.0
0.017943831271214832 -0.058426065165149824 0.0
0.01866417068880451 -0.009671491197360915 0.0
0.016738890362102233 -0.05724338650173983 0.0
0.017601858334719958 -0.0564269315793267 0.0
0.016737073649982507 -0.033072556144692226 0.0
0.01710003339398323 -0.04761001041066084 0.0
0.016938514228735553 -0.038397806328191855 0.0
0.0172702769065866 -0.051225696147856936 0.0
0.00674754896106206 -0.023208008842155663 0.0
0.019039137561100292 -0.009302146568545963 0.0
0.022496948909807333 -0.05423627287192449 0.0
0.01799934979793649 -0.05842740400571172 0.0
0.01741193023984523 -0.05819261653251368 0.0
0.014282896697372259 -0.012828827080101107 0.0
0.029213597503235197 -0.027109390077545686 0.0
0.02276859611478437 -0.036123857553987775 0.0
0.022867365653314778 -0.0409107190953953 0.0
0.021179902421023876 -0.04974593136328516 0.0
0.014150942777901368 -0.0454681033066867 0.0
0.014744076432994099 -0.04943023505351986 0.0
0.016079623806659945 -0.05541616273341468 0.0
0.008257637342233523 -0.03840189573078001 0.0
0.007418489710152309 -0.03307076840764432 0.0
0.014997447737761507 -0.053332521528114414 0.0
0.012900559195922829 -0.04196635487505687 0.0
0.013555844823721973 -0.046393451574382044 0.0
0.020825684111287157 -0.03586306061893892 0.0
0.020123042432920867 -0.015256872947994502 0.0
0.010644061334131311 -0.00963030553802409 0.0
0.02481695210650427 -0.008290833104173822 0.0
0.018891524857465092 -0.05118999160726122 0.0
0.0194207772942232 -0.038608098050409545 0.0
0.01848207190411067 -0.056327453999788626 0.0
0.01907091645511932 -0.047545007920298324 0.0
0.019481316396378446 -0.03283442358186808 0.0
0.028000564263214695 -0.03187918235171604 0.0
0.010900213576340108 -0.0074190895279800575 0.0
0.022869247667674276 -0.04453238353964845 0.0
0.02130489338499362 -0.05214900374228732 0.0
0.02338741434158422 -0.039905343499983544 0.0
0.016988484532791132 -0.04335202108567404 0.0
0.017314124652355104 -0.0513723835306385 0.0
0.016809275014201645 -0.03849506249844944 0.0
0.019574393900407952 -0.05767908183980524 0.0
0.017427234272539997 -0.05432192334256806 0.0
0.012762668317888814 -0.040464944306248855 0.0
0.01220266599778764 -0.035313066776106225 0.0
0.021251780080690372 -0.056141105907081476 0.0
0.018448507342437234 -0.058210039926084506 0.0
0.015186571072933275 -0.024477112431425956 0.0
0.016885926607207592 -0.027006211801578223 0.0
0.016503278417818682 -0.020878874962799818 0.0
0.015938852392102958 -0.05601748289295944 0.0
0.01695899083449713 -0.03297603972105117 0.0
0.009517576469333489 -0.043228352514010686 0.0
0.01065766747622475 -0.04746223907438005 0.0
0.018061625309463133 -0.058253859552692897 0.0
0.02718915908198378 -0.03799157814169845 0.0
0.0238732540146627 -0.05086527299219466 0.0
0.013982272055498951 -0.05096406467302475 0.0
0.01321522739385222 -0.04724708629332197 0.0
0.01161751379859685 -0.027901204191854368 0.0
0.030260871999308055 -0.007594395728418227 0.0
0.006192360538812008 -0.009925755513428253 0.0
0.01910713144017361 -0.02068823599244584 0.0
0.01873428408269739 -0.057192020897148026 0.0
0.017643861706971346 -0.0563991255774227 0.0
0.017265443884835998 -0.05703025387433254 0.0
0.015856062447859236 -0.009582758880274 0.0
0.01617375954118062 -0.05758203113716005 0.0
0.02975024335429895 -0.02074640496275161 0.0
0.017073451739021972 -0.02697425309274102 0.0
0.023802220788621733 -0.01417522254502041 0.0
0.016446377700350855 -0.05680636421706825 0.0
0.017428738177977823 -0.047651860355060076 0.0
0.017567574714923595 -0.05434144184795547 0.0
0.01724678876883946 -0.04357117193124499 0.0
0.011757166206922336 -0.024906456680229005 0.0
0.011982639184844499 -0.03466533889860658 0.0
0.011494864086759978 -0.028974884693485463 0.0
0.014974801942636524 -0.05339157373770533 0.0
0.014158228235412807 -0.05019996843908667 0.0
0.01825826824939418 -0.05773729190975727 0.0
0.014500524970866924 -0.056112244465656505 0.0
0.024983640096697853 -0.023286452120943164 0.0
0.02512511610387495 -0.033015269715774606 0.0
0.022974605654276142 -0.04758800835852287 0.0
0.017415681857453236 -0.057206769297716245 0.0
0.02018519896230176 -0.05631706288577735 0.0
0.006051954649071077 -0.027269068820686807 0.0
0.01096000774586195 -0.022657082268695138 0.0
0.011507975026365415 -0.01949361809659876 0.0
0.020868801535344678 -0.029748899658486587 0.0
0.019863521550806916 -0.04928671129233201 0.0
0.020191265037462443 -0.04539351887643199 0.0
0.019102547331433392 -0.05527092574958688 0.0
0.022188964294956228 -0.05138216242471419 0.0
0.016403843450300278 -0.04948377337511077 0.0
0.017056725686505125 -0.05543892570524054 0.0
0.016097489880408235 -0.045579758957465896 0.0
0.029594083342255488 -0.01317817511529859 0.0
0.017878301306644185 -0.05784206730672357 0.0
0.0209646344129294 -0.04566953504287563 0.0
0.021144668278849935 -0.04154815238029008 0.0
0.01984321968548798 -0.05316666515487931 0.0
0.01933966620082056 -0.0527735336615806 0.0
0.013189697540413955 -0.05406433773226517 0.0
0.018338351714250738 -0.05828259909411756 0.0
0.01967486696212237 -0.04942815700336301 0.0
0.020474914041041802 -0.03559803947281181 0.0
0.020398241971267047 -0.024033481141168184 0.0
0.024010498294327248 -0.05074080332888651 0.0
0.01114958450974949 -0.013267325964662327 0.0
0.02434093469101136 -0.012576966233495784 0.0
0.026645219679126204 -0.04296021374847132 0.0
0.010027490891639337 -0.021964679448908755 0.0
0.01667164694260638 -0.05766146591685679 0.0
0.024638957563704093 -0.01908422888395054 0.0
0.024024626530591175 -0.019542425675478335 0.0
0.018961133459827632 -0.05542975511838051 0.0
0.01881148403856614 -0.05800882551123994 0.0