<VTKFile type="UnstructuredGrid"  version="0.1">
<UnstructuredGrid>
<Piece NumberOfPoints="713" NumberOfCells="1304">
<Points>
<DataArray type="Float64" NumberOfComponents="3" format="ascii">
0.0 0.0 0.0
10.0 0.0 0.0
10.0 2.0 0.0
5.0 2.0 0.0
0.0 2.0 0.0
0.199999999999856 0.0 0.0
0.3999999999996677 0.0 0.0
0.5999999999994683 0.0 0.0
0.7999999999993286 0.0 0.0
0.9999999999991888 0.0 0.0
1.199999999999033 0.0 0.0
1.399999999998576 0.0 0.0
1.599999999997992 0.0 0.0
1.799999999997408 0.0 0.0
1.999999999996825 0.0 0.0
2.199999999996241 0.0 0.0
2.399999999995657 0.0 0.0
2.599999999995073 0.0 0.0
2.79999999999449 0.0 0.0
2.999999999993906 0.0 0.0
3.199999999993322 0.0 0.0
3.399999999992738 0.0 0.0
3.599999999992154 0.0 0.0
3.799999999991571 0.0 0.0
3.999999999991022 0.0 0.0
4.199999999991187 0.0 0.0
4.399999999991491 0.0 0.0
4.599999999991795 0.0 0.0
4.799999999992099 0.0 0.0
4.999999999992403 0.0 0.0
5.199999999992706 0.0 0.0
5.39999999999301 0.0 0.0
5.599999999993313 0.0 0.0
5.799999999993618 0.0 0.0
5.999999999993922 0.0 0.0
6.199999999994227 0.0 0.0
6.39999999999453 0.0 0.0
6.599999999994833 0.0 0.0
6.799999999995138 0.0 0.0
6.999999999995442 0.0 0.0
7.199999999995747 0.0 0.0
7.39999999999605 0.0 0.0
7.599999999996353 0.0 0.0
7.799999999996658 0.0 0.0
7.999999999996962 0.0 0.0
8.199999999997265 0.0 0.0
8.399999999997569 0.0 0.0
8.599999999997873 0.0 0.0
8.799999999998176 0.0 0.0
8.99999999999848 0.0 0.0
9.199999999998786 0.0 0.0
9.399999999999089 0.0 0.0
9.599999999999392 0.0 0.0
9.799999999999697 0.0 0.0
10.0 0.1999999999996293 0.0
10.0 0.3999999999991157 0.0
10.0 0.5999999999985328 0.0
10.0 0.7999999999979498 0.0
10.0 0.9999999999973885 0.0
10.0 1.199999999997894 0.0
10.0 1.39999999999842 0.0
10.0 1.599999999998947 0.0
10.0 1.799999999999474 0.0
9.799999999999999 2.0 0.0
9.6 2.0 0.0
9.399999999999999 2.0 0.0
9.2 2.0 0.0
8.999999999999998 2.0 0.0
8.799999999999999 2.0 0.0
8.599999999999998 2.0 0.0
8.399999999999999 2.0 0.0
8.2 2.0 0.0
7.999999999999998 2.0 0.0
7.799999999999999 2.0 0.0
7.599999999999999 2.0 0.0
7.399999999999999 2.0 0.0
7.199999999999999 2.0 0.0
7.0 2.0 0.0
6.799999999999999 2.0 0.0
6.6 2.0 0.0
6.399999999999999 2.0 0.0
6.199999999999999 2.0 0.0
5.999999999999999 2.0 0.0
5.8 2.0 0.0
5.6 2.0 0.0
5.399999999999999 2.0 0.0
5.199999999999999 2.0 0.0
4.8 2.0 0.0
4.6 2.0 0.0
4.399999999999999 2.0 0.0
4.199999999999998 2.0 0.0
3.999999999999999 2.0 0.0
3.799999999999999 2.0 0.0
3.599999999999999 2.0 0.0
3.399999999999999 2.0 0.0
3.199999999999998 2.0 0.0
2.999999999999999 2.0 0.0
2.799999999999999 2.0 0.0
2.599999999999999 2.0 0.0
2.399999999999999 2.0 0.0
2.199999999999999 2.0 0.0
2.0 2.0 0.0
1.799999999999999 2.0 0.0
1.599999999999999 2.0 0.0
1.399999999999999 2.0 0.0
1.199999999999999 2.0 0.0
0.9999999999999991 2.0 0.0
0.7999999999999998 2.0 0.0
0.5999999999999996 2.0 0.0
0.3999999999999995 2.0 0.0
0.1999999999999993 2.0 0.0
0.0 1.799999999999167 0.0
0.0 1.6 0.0
0.0 1.400000000001387 0.0
0.0 1.200000000002774 0.0
0.0 1.000000000004117 0.0
0.0 0.8000000000033287 0.0
0.0 0.6000000000024965 0.0
0.0 0.4000000000016644 0.0
0.0 0.200000000000832 0.0
1.499207686858938 0.9671416246672391 0.0
2.690335006295381 0.9619521672166851 0.0
3.892537609238439 1.007271393615351 0.0
8.916602958236062 0.9848120741100651 0.0
7.714518201951718 1.024234589865042 0.0
6.514518201951581 1.024234589865268 0.0
5.299999999999998 1.000000000000349 0.0
0.7620577975594133 1.201991596673393 0.0
4.61755859746166 1.240410629378135 0.0
2.099999999996533 0.6749999999988996 0.0
3.289480163184942 0.6802242156869155 0.0
8.299999999999976 1.325000000000064 0.0
7.110519836808121 1.319775784312006 0.0
5.893184537067197 1.292851873188582 0.0
3.268568008578649 1.341967835735878 0.0
2.118368267083699 1.321829331075689 0.0
5.930896443153832 0.6493414313150682 0.0
7.106926174231782 0.6329785805444448 0.0
8.306926174233002 0.6329785805444098 0.0
4.427960725065653 0.6389803625370323 0.0
0.9828791719046732 0.6520555711814596 0.0
9.383333333333349 0.6166666666667164 0.0
9.383333333333326 1.383333333333367 0.0
4.974443803660211 0.5526668589022862 0.0
1.248084267804327 1.464555585366204 0.0
4.139486343919472 1.468449088519687 0.0
5.077806736162063 1.478342020848787 0.0
1.629462398503482 0.5098631373669138 0.0
2.579462070540726 0.5133714280880515 0.0
3.770778974032556 0.5099482598296803 0.0
8.764748922637567 1.526880805960684 0.0
7.820537929455645 1.486628571911716 0.0
6.632254923791462 1.492045881343967 0.0
2.796478414430566 1.477149214423874 0.0
6.403521585563812 0.5228507855762514 0.0
7.603521585564883 0.5228507855756581 0.0
8.783559188644787 0.5066440811355862 0.0
0.5060338924245764 0.5082251307884346 0.0
5.451633334958382 0.4799315318847731 0.0
1.683269995544083 1.547372422998862 0.0
0.448590368789599 1.551409631210402 0.0
5.545526974704655 1.582008455135239 0.0
3.666056976948354 1.56999765613834 0.0
0.4385739326402744 0.9352922270094057 0.0
9.58170539854767 0.9922137522194456 0.0
4.93200119575972 0.9247090920592975 0.0
6.20679636316332 1.642443126922768 0.0
7.418963044745086 1.587405313446662 0.0
2.98103695524982 0.412594686552066 0.0
2.420975602092416 1.592770352831584 0.0
7.97902439790374 0.4072296471687943 0.0
6.779024397902082 0.4072296471687297 0.0
1.130444757308209 0.9859238872709168 0.0
0.8901814758011342 1.60566856081121 0.0
4.263670373274499 0.9915754392410991 0.0
3.096698167273431 1.009056907826855 0.0
6.088506433998166 0.9857489435828969 0.0
1.902225037409936 1.003483800311746 0.0
7.288506433998439 0.9857489435828686 0.0
8.498964973312972 1.005823551167602 0.0
2.307571737417198 1.008136792450924 0.0
8.100397971125554 1.000138280273345 0.0
6.900397971125225 1.000138280273792 0.0
3.499307350770321 0.9996496628144824 0.0
5.703656022566558 0.9885479657552226 0.0
4.719420624357892 1.622286409566126 0.0
4.099803549896894 0.3600308081356619 0.0
1.286100671532495 0.3637431910670685 0.0
9.120549139677793 1.655065205594329 0.0
9.11726214008418 0.3400668903113251 0.0
4.642568097328033 0.3514924793220939 0.0
9.630437629189052 0.3309104953729904 0.0
9.674493769554315 1.668196579944218 0.0
1.936458797611609 0.3337070483410596 0.0
3.461817573918652 0.3447876019040473 0.0
8.440152788772068 1.649667667046397 0.0
6.973083089482548 1.643748677366674 0.0
3.126874515006838 1.659115470008545 0.0
6.070607878384977 0.3410183041038941 0.0
7.255014454789089 0.32792256737713 0.0
8.462493615948901 0.3368393217476116 0.0
9.236261261261264 0.9276047786917867 0.0
5.885444386845415 1.667751020273455 0.0
0.8062340689595878 0.3261579034781319 0.0
2.29463843780282 0.308358158429197 0.0
8.10536156219338 1.691641841570632 0.0
4.041916759198581 0.7211683801597477 0.0
1.324377365289917 0.710525897087282 0.0
9.023167917315867 1.292262965009952 0.0
2.044244009166302 1.693807225416931 0.0
0.7675765545556328 0.8969765944392112 0.0
2.86965991063896 0.7069213925303978 0.0
6.330340089355722 1.293078607468788 0.0
7.530340089355831 1.29307860746885 0.0
2.509347777214458 1.27231292939881 0.0
7.890652222779963 0.7276870706009825 0.0
6.690652222780154 0.7276870706013264 0.0
4.380959112578968 1.65866292149053 0.0
0.3278422400819535 1.233362752678148 0.0
5.754468991464942 0.3469215055361071 0.0
9.69195804401614 0.7000195364707393 0.0
9.691250997975434 1.303243780084337 0.0
5.54324561063747 1.237401556904767 0.0
9.044596057577811 0.6843248705785732 0.0
5.208929198448351 0.3519433027337513 0.0
3.708880196230617 1.249762029554333 0.0
1.713349558540635 1.234899745098077 0.0
4.586522821995393 0.9261740906803194 0.0
5.241145838821565 0.7007005766013242 0.0
1.434457446926135 1.701926055218157 0.0
0.2821921707428039 0.3393165318407161 0.0
3.42846431357046 1.714274134409306 0.0
5.26283485467567 1.710141275531951 0.0
3.966530105129177 1.718376080180638 0.0
4.891301048299285 1.259923533724591 0.0
0.2787500712946937 0.6906723798523376 0.0
1.822166578929051 0.7301892210727335 0.0
8.593276160688786 1.287322908694633 0.0
2.386017956680413 0.7288816957021155 0.0
3.576911792171353 0.7225526638483954 0.0
8.013982043315597 1.271118304297217 0.0
6.82303669320588 1.277631295759485 0.0
2.891837633696712 1.215141906356511 0.0
8.708162366297856 0.7848580936429009 0.0
7.496736072543097 0.7897651325976158 0.0
6.296736072542775 0.7897651325982009 0.0
5.523181420933933 0.7588744249744506 0.0
4.725538117155759 0.6529070682798582 0.0
2.736307197014292 0.273961667653487 0.0
7.663692802980817 1.726038332346062 0.0
6.446842959287713 1.783714797320288 0.0
1.126188383272983 1.743715177525389 0.0
2.64757240694847 1.787239829472812 0.0
6.546646507559373 0.2589894635657943 0.0
7.746646507561152 0.2589894635657218 0.0
4.079302268890254 1.221431431691139 0.0
4.433746883463333 0.2983726043497702 0.0
1.032697650548726 1.318076986199429 0.0
1.309492735411376 1.208980965369829 0.0
3.896105387998365 0.2579746081881307 0.0
9.378751775005455 1.725996478164223 0.0
9.3965279828929 0.2649862374471925 0.0
1.515757555362918 0.2603060454608533 0.0
4.959097093232828 1.726144293543605 0.0
4.912501341257775 0.2529154558175828 0.0
4.342421824442713 1.285376618065631 0.0
7.023506283123107 0.293611963231815 0.0
8.215829626877609 0.2682061590942965 0.0
5.28145265730745 1.291130016052329 0.0
8.693992162747364 1.744100892812201 0.0
0.6256567126095668 1.775064851453201 0.0
0.2724967459749605 1.756941612685287 0.0
8.90781713264278 0.2741674349222226 0.0
7.184202236567151 1.709454269177068 0.0
3.212962614055919 0.2641656831057426 0.0
0.6761590188374282 0.6746441670621973 0.0
1.020489328989316 0.2487299689497893 0.0
1.485017749467193 1.402133856149482 0.0
6.734223224917944 1.790518105434539 0.0
2.657549589911705 0.7636227781082678 0.0
6.542590471647475 1.237213715285722 0.0
7.742745187066703 1.235538225115726 0.0
0.5794341726414672 0.2480285055479751 0.0
1.842901067642841 1.760146518280044 0.0
3.84389577648662 0.7524680119172447 0.0
3.061589173628368 1.407936939342627 0.0
6.144447294584154 0.5911674363009913 0.0
7.344447294585433 0.5911674362995804 0.0
8.544447294586682 0.5911674362982269 0.0
5.491507940982565 0.1734458797927824 0.0
[...]
<PointData Vectors="fields">
<DataArray type="Float64" Name="U" NumberOfComponents="3" format="ascii">
0.0 0.0 0.0
0.03253137614201104 0.0 0.0
0.0026938993350012295 -0.005817574843223041 0.0
0.016117124473522502 -0.0521720130644015 0.0
0.029783822991899883 -0.005459648156475491 0.0
0.00033375201927933907 -0.006113802354385337 0.0
0.0009883265828614955 -0.010075766133349382 0.0
0.0015772364273141165 -0.01359303122455904 0.0
0.00207082749607671 -0.01669696186570894 0.0
0.002504378282607511 -0.019664660413034937 0.0
0.002924419092091818 -0.022520191123560705 0.0
0.003348921304229693 -0.025272666808838155 0.0
0.003817776468025006 -0.027935982707038103 0.0
0.00430524161799351 -0.0305112047366262 0.0
0.004836449595339242 -0.03297073354642967 0.0
0.00540021409733129 -0.035312183306753536 0.0
0.00602090300273159 -0.037537748381261685 0.0
0.006658634212114531 -0.039626707610282697 0.0
0.007364149109759846 -0.041578886994114474 0.0
0.008067878234284096 -0.0433839895729522 0.0
0.008825883488233202 -0.04503386436894604 0.0
0.009581969297730685 -0.04651336369325308 0.0
0.010373205680058672 -0.04783446230062092 0.0
0.011166460470336613 -0.04895296861733317 0.0
0.011964997587171757 -0.049953430899960544 0.0
0.012792994725158968 -0.05075489576126012 0.0
0.013609449391231378 -0.05137416935402132 0.0
0.01444899928907375 -0.05182304567391174 0.0
0.015274669451458518 -0.052083126876960845 0.0
0.016135835555042513 -0.052172512304905334 0.0
0.016975649938981242 -0.052082168975109824 0.0
0.017818796525818525 -0.05180724769146063 0.0
0.018662124454239905 -0.0513559278179287 0.0
0.019498458727639497 -0.05072173856429665 0.0
0.02031508460750299 -0.04991811839533721 0.0
0.02115029292375513 -0.048951626743328425 0.0
0.021941644886504186 -0.047767270790948356 0.0
0.02273404365736466 -0.04647229007917557 0.0
0.023488558668746506 -0.04500911716760732 0.0
0.02423830696319553 -0.043364084831629186 0.0
0.02494179773276768 -0.041572235346099336 0.0
0.025615547423526615 -0.03964268929981242 0.0
0.026236007303355655 -0.03754384358361897 0.0
0.026839244763086457 -0.035363975228303306 0.0
0.027391941983554817 -0.033054796768477716 0.0
0.027919936235810162 -0.030621195922861687 0.0
0.028402743518843997 -0.028073253071758154 0.0
0.028863290605005764 -0.02543798916714611 0.0
0.029282774626011348 -0.022705973603928464 0.0
0.0297104593997126 -0.019873100678695105 0.0
0.030129385683597756 -0.016942548411204773 0.0
0.03059516368008798 -0.013852786773069952 0.0
0.03111175924315174 -0.010508607821397032 0.0
0.031912493774020514 -0.0065455141448849865 0.0
0.02754322575460868 -0.0023001409391267174 0.0
0.024289344504683365 -0.003559119404516185 0.0
0.02132561457785186 -0.0043583182865468105 0.0
0.01859736154154474 -0.0049616250746602995 0.0
0.015947244427542268 -0.0053404546350986955 0.0
0.013343738374096938 -0.005587171643913598 0.0
0.010742532733519609 -0.005736444785899146 0.0
0.008103918243439359 -0.005803418507462931 0.0
0.005419963146186972 -0.005817307251021191 0.0
0.0026920188292760207 -0.008553374291512244 0.0
0.0026995150239157756 -0.011323360577115282 0.0
0.0027493286070699938 -0.014134450118175755 0.0
0.0028637255045110433 -0.016973497241123972 0.0
0.0030527653190947916 -0.019801719232441048 0.0
0.0033096476344997893 -0.022583357501278867 0.0
0.0036373923755985372 -0.02532984882589087 0.0
0.004022228461481923 -0.02798280261959298 0.0
0.004465755935202314 -0.03054080745707313 0.0
0.004973219596640592 -0.033000348218381964 0.0
0.0055062998019970305 -0.035335384999693575 0.0
0.006108561947472399 -0.03755027864333623 0.0
0.006719869996287981 -0.03963070166859475 0.0
0.007391153000478989 -0.04156920355235135 0.0
0.008083793737167479 -0.043365674655136875 0.0
0.008805775279027999 -0.04500665305064737 0.0
0.00953716413857603 -0.04645193440992085 0.0
0.010310781326113766 -0.04780345313589097 0.0
0.01110603956264965 -0.04894423294253797 0.0
0.01189989900321127 -0.04992066735348736 0.0
0.01273089066411278 -0.05073298615410104 0.0
0.01358783419398775 -0.05135976089275035 0.0
0.014413173953928549 -0.05180800960715035 0.0
0.015273102903356992 -0.05208122639667382 0.0
0.016977800186974774 -0.05206912734561507 0.0
0.01779978784038789 -0.051805825878215445 0.0
0.01861658586396744 -0.05136707547136671 0.0
0.019457645589747004 -0.05076076507529105 0.0
0.020299028042661697 -0.049952373027449676 0.0
0.021145004270417374 -0.04897094403511066 0.0
0.021942947888899972 -0.047825440697484775 0.0
0.02275378065812793 -0.04650561285010443 0.0
0.023537609141036846 -0.045027080073732705 0.0
0.02430448035211536 -0.043380033109187296 0.0
0.02501171303113705 -0.04154048747467308 0.0
0.025704639325137463 -0.03961391962388136 0.0
0.02633808995494994 -0.03750949599899426 0.0
0.026926884596116828 -0.03527243935275858 0.0
0.027491065386937692 -0.03290914080176576 0.0
0.02799889212090488 -0.030427846906734758 0.0
0.028441396005367964 -0.027846563168189724 0.0
0.02884647272414481 -0.0251600221456847 0.0
0.029173580902042376 -0.022399188182125652 0.0
0.029434404815788476 -0.01957237207803584 0.0
0.02961503961617806 -0.016720480271359344 0.0
0.02972266277946084 -0.01385509303640432 0.0
0.029775367604877822 -0.01101936592921169 0.0
0.029787917768584516 -0.008218784560003332 0.0
0.027031254270424916 -0.005460995410666894 0.0
0.02432018603096343 -0.005447699048924566 0.0
0.021659132001276674 -0.005385530348184378 0.0
0.019025666973078153 -0.005242258594994921 0.0
0.016401013290253303 -0.004977956298426534 0.0
0.013727122425672148 -0.004602945927678057 0.0
0.01097211314274894 -0.004004225292499748 0.0
0.008004516631214655 -0.003177299721403108 0.0
0.004500903609994606 -0.0017952521160579332 0.0
0.015823372798559707 -0.026747731477950506 0.0
0.01582850883122748 -0.04084780251320523 0.0
0.016173826114945243 -0.04984257274644279 0.0
0.016237239035504586 -0.021126382857858166 0.0
0.01592422284146349 -0.03659354991491964 0.0
0.01599832686410394 -0.04744151244182645 0.0
0.01612611591225859 -0.052370926392731776 0.0
0.019001021434511062 -0.016196693869475184 0.0
0.016503765473022652 -0.05222199822429298 0.0
0.012679257456356497 -0.034386464995914676 0.0
0.013985247955490056 -0.04604831375706314 0.0
0.012385911466213631 -0.029482067131083936 0.0
0.013526993057389015 -0.042687463340618195 0.0
0.015057410000349403 -0.050747043558528056 0.0
0.018523030182462156 -0.04589127028177527 0.0
0.01961139860156881 -0.034570296147619195 0.0
0.017468431376503224 -0.05057822156242716 0.0
0.019183982424486472 -0.04272458519252946 0.0
0.02043639732263382 -0.02945438819922628 0.0
0.015298466132441174 -0.05179932327236275 0.0
0.011755413546386156 -0.019482894201206538 0.0
0.021039994130102987 -0.014182953091623329 0.0
0.01100488093598464 -0.014359501558606902 0.0
0.016079114608766577 -0.05248888104323278 0.0
0.02207179287627605 -0.023193782675671463 0.0
0.017777367466474413 -0.050835666161326246 0.0
0.015961439868601726 -0.05246122226305274 0.0
0.01031791752900391 -0.028477758082888698 0.0
0.011612783286829124 -0.03966012699974497 0.0
0.013709818269450474 -0.04911187430398741 0.0
0.00954425764506194 -0.023191582112742932 0.0
0.011078557253475327 -0.03530871710384942 0.0
0.01290839219394686 -0.04652715866765537 0.0
0.020290027138046198 -0.04179162137378601 0.0
0.018860306508977086 -0.0480640386360094 0.0
0.020868810601344885 -0.03775272563916991 0.0
0.022375922251577484 -0.02304466192744415 0.0
0.00970523670064764 -0.012101587472439619 0.0
0.017100608117175082 -0.052006378537797396 0.0
0.022648721261750125 -0.029085881700768503 0.0
0.023644826775075074 -0.011683139045965954 0.0
0.014805290201723213 -0.05177355584032346 0.0
0.019236236949992547 -0.048490945177649625 0.0
0.015606264842426358 -0.01125869168717467 0.0
0.015989410679642484 -0.011293900747179182 0.0
0.0161079435993579 -0.05257539990626721 0.0
0.012943096204834064 -0.049135704663256854 0.0
0.010705279491212657 -0.03963883036375623 0.0
0.011476472062956185 -0.043448906465823986 0.0
0.022033287891543525 -0.037937898022511164 0.0
0.0226617019279986 -0.03346438577667503 0.0
0.020379335899155054 -0.045398498344375274 0.0
0.016113607532664623 -0.021595425372704122 0.0
0.024163500851533164 -0.018058980490261795 0.0
0.016113061981457795 -0.0513689961638336 0.0
0.016233350181919487 -0.04455720935115822 0.0
0.01620089859666723 -0.04990677749103872 0.0
0.016226043489747283 -0.03198939412984039 0.0
0.016291825893383072 -0.041050432409984045 0.0
0.016054125556062823 -0.02691931126569757 0.0
0.016255639506684332 -0.03679942522107422 0.0
0.016156441241551068 -0.032050536203449415 0.0
0.016153138441508518 -0.04454932687534728 0.0
0.016151553035662434 -0.04758001287068312 0.0
0.016155403132698563 -0.05145830697530988 0.0
0.016841245477252336 -0.052253479766431486 0.0
0.01378402087333662 -0.05061847044511039 0.0
0.008064562942539053 -0.02383057738735665 0.0
0.007605619290468262 -0.018145764839965876 0.0
0.024930657625769372 -0.018248939417556245 0.0
0.015175873361699217 -0.05213400008614452 0.0
0.025237649245228665 -0.010040610459767958 0.0
0.007207420895183388 -0.010270020288827363 0.0
0.008633229051544275 -0.032346940366009484 0.0
0.01208398174167708 -0.047172381775032066 0.0
0.008370166660226257 -0.02757488183956323 0.0
0.011105507754083841 -0.043798729886158565 0.0
0.021115203523481115 -0.04465201416895814 0.0
0.019040253429545472 -0.04982807536733187 0.0
0.022087464105625308 -0.04124009176873478 0.0
0.024221444218117005 -0.02738539717129808 0.0
0.016894873660942927 -0.016457392231491598 0.0
0.013674352143578405 -0.05063671472713343 0.0
0.007063639808603052 -0.016865912494611036 0.0
0.009033977823350373 -0.03653850391487813 0.0
0.008374774979437696 -0.031848399797989355 0.0
0.015063603462905764 -0.05050535210063861 0.0
0.012614611767241418 -0.024371368575105464 0.0
0.012321625200592972 -0.01957073276286718 0.0
0.023813029963501074 -0.03358916691827304 0.0
0.015042150537514109 -0.016257479956169864 0.0
0.013728099510413708 -0.04254738069781939 0.0
0.014561055539022878 -0.04857825083932238 0.0
0.013364919574287981 -0.03857335093420949 0.0
0.01876598545245042 -0.03896128899408859 0.0
0.019060718378761297 -0.034569600365024794 0.0
0.017992955141191393 -0.04617214414003314 0.0
0.0178026329549195 -0.051556645282349205 0.0
0.019500559511573572 -0.009817998874337604 0.0
0.018168806345251125 -0.05111520697416216 0.0
0.0198423845989125 -0.009333678660425572 0.0
0.01197903920084526 -0.00991012228156592 0.0
0.015595680400952031 -0.05188688932361435 0.0
0.02011890650056502 -0.019301513028718048 0.0
0.01668831243619316 -0.0523157180897922 0.0
0.01744296881956296 -0.04884923873394681 0.0
0.01893744099658031 -0.029552287586805604 0.0
0.016012683369768053 -0.05218769241723681 0.0
0.016421662730879083 -0.05241760061240735 0.0
0.024878978421861177 -0.02572682041014423 0.0
0.007155600477450551 -0.008104165919761689 0.0
0.020716647880286775 -0.04689632516133646 0.0
0.015343251602150419 -0.052225250528642235 0.0
0.019175568319241623 -0.05001129977901101 0.0
0.016239704995817825 -0.052512550002155586 0.0
0.012333239654690943 -0.008544806494294847 0.0
0.013094034612888342 -0.030981445193746224 0.0
0.012629162805916597 -0.025595952582815336 0.0
0.013489576225266248 -0.037654009770744186 0.0
0.014578849275181712 -0.04804504890291945 0.0
0.013212924324294172 -0.03307108171650869 0.0
0.014151594642487391 -0.045143050874703 0.0
0.01794249960609273 -0.042743554504298606 0.0
0.018769015483573775 -0.02408646162342177 0.0
0.018160208426465464 -0.03893317153650047 0.0
0.017247242136183366 -0.048772246477988106 0.0
0.01664416961137315 -0.05193312280913761 0.0
0.015739942199098248 -0.05236043953961052 0.0
0.009706976263221824 -0.04113319508568601 0.0
0.008836306744352204 -0.036995803564809984 0.0
0.011483478788066749 -0.047640910931622024 0.0
0.02579286644645585 -0.021422705504628322 0.0
0.023457411414578924 -0.0402073117148106 0.0
0.020817477694298064 -0.04701535805567622 0.0
0.02386289348488904 -0.03609409685108443 0.0
0.016960130635809596 -0.05066191456029107 0.0
0.01448933246504551 -0.05166758614084402 0.0
0.020363540048142992 -0.020145973878322888 0.0
0.018845654873478824 -0.024097252454180575 0.0
0.012780452010852837 -0.049649444044470595 0.0
0.006512152256069288 -0.014449533380684592 0.0
0.026280907607502298 -0.013966741964422439 0.0
0.007022900086299888 -0.026935174079635738 0.0
0.016241486067949965 -0.05236750960406962 0.0
0.01585747843860388 -0.05233728737775456 0.0
0.016892803949132007 -0.051574424900557914 0.0
0.021835232567750783 -0.04333555226773625 0.0
0.024672422010794 -0.03053131630356457 0.0
0.015785490104500848 -0.05236066481510199 0.0
0.006855928274203196 -0.024121862405070343 0.0
0.026587575426804042 -0.014238457828569702 0.0
0.026434291027793776 -0.009219525333945653 0.0
0.025650641346126078 -0.021278814486488575 0.0
0.010067976640374558 -0.04187861890681374 0.0
0.010879183485117789 -0.04530245331782188 0.0
0.01206351253499096 -0.014846743404478849 0.0
0.006146842867832221 -0.020036192325237356 0.0
0.021098155437628153 -0.026476684484412788 0.0
0.010585871178949994 -0.04562862366137657 0.0
0.01402389366755848 -0.0405074311412279 0.0
0.014671131819304972 -0.047228029953972774 0.0
0.013766496509518309 -0.036251614078297356 0.0
0.00569700655467526 -0.013280588006121674 0.0
0.02495774431759317 -0.03107038145775925 0.0
0.01499205890403216 -0.04956710985733162 0.0
0.01929363692731224 -0.04419535246911917 0.0
0.01804086129156049 -0.049552925515467264 0.0
0.019848765245532925 -0.04044737126150292 0.0
0.021113481017154347 -0.02632135450804953 0.0
0.017824009840861965 -0.05175574661205139 0.0
0.013521513990528013 -0.02761720648648569 0.0
0.022490787100704488 -0.042940606978858466 0.0
0.023442341069914874 -0.03924518299499965 0.0
0.020085725819636795 -0.04881431181621748 0.0
0.022420755652194535 -0.015010065852712591 0.0
0.01355879565351867 -0.014325631720846983 0.0
0.013998430959323875 -0.05126705675782947 0.0
0.017993873274897414 -0.04968447968242458 0.0
0.008466044920293422 -0.03880658827412186 0.0
0.007607010293615199 -0.034379070698121864 0.0
0.01754015967951957 -0.05125396275392652 0.0
0.013185002962778122 -0.02306744979190029 0.0
0.02192384637754575 -0.0325827907207087 0.0
0.018483430553905635 -0.013006097915667102 0.0
0.0187401118183813 -0.05087421475709306 0.0
0.022879443869675848 -0.00760517684260216 0.0
0.011936946710104875 -0.04835230078612664 0.0
0.006963212025099764 -0.029947552787450572 0.0
0.01707831906380548 -0.05199114858083834 0.0
0.012601898896881033 -0.049738074611287326 0.0
0.018482787601370336 -0.04770118215517754 0.0
0.024467035929743315 -0.03631967314208625 0.0
0.016102815707314293 -0.05255460032086095 0.0
0.01671848199084156 -0.008507155576567378 0.0
0.015008517854505882 -0.05148789300363132 0.0
0.015796639450973628 -0.050743574613201496 0.0
0.015061829420223197 -0.029517062440736583 0.0
0.01536560797268524 -0.042704341757556094 0.0
0.015172003251568766 -0.03439800616894037 0.0
0.015495782543988852 -0.046051034424289594 0.0
0.006052325125750546 -0.02063951681878399 0.0
0.017156656619954528 -0.008156609025112522 0.0
0.020222056088715388 -0.04878337748423176 0.0
0.01615126118411578 -0.05255518297105759 0.0
0.0156208130309587 -0.05234823186548605 0.0
0.012760693745248866 -0.011350723327376324 0.0
0.0263365050976371 -0.024142759319836154 0.0
0.020531497522694075 -0.032273960318797 0.0
0.02055659623262695 -0.03668058077032483 0.0
0.019078524947444178 -0.04465273700871 0.0
0.012685171486217442 -0.040756303507376065 0.0
0.013211513134253476 -0.044422851518683346 0.0
0.01440882697185237 -0.049824112978802994 0.0
0.007294991544333841 -0.03440704829757435 0.0
0.006624714553992077 -0.02952657159413734 0.0
0.013425993958666761 -0.04792406423199551 0.0
0.011559733549948728 -0.037574686884058725 0.0
0.012122597857211204 -0.04166470247573682 0.0
0.018696125364650103 -0.03210194826873064 0.0
0.018135458913164135 -0.013497322919146454 0.0
0.009580494342845549 -0.008433095223837023 0.0
0.02236250767713517 -0.007274356682505696 0.0
0.016959013237702814 -0.046018692151373095 0.0
0.017425292165755807 -0.03458909804362233 0.0
0.016596967824419218 -0.05065275764808086 0.0
0.017162175631242477 -0.042645216350080214 0.0
0.017549160753052084 -0.02930044144441011 0.0
0.02518677789661253 -0.028505120511061643 0.0
0.009713561042412132 -0.006515237957882055 0.0
0.020564596279498193 -0.039969618718960626 0.0
0.019183093690241577 -0.04684515641493602 0.0
0.02109765878264701 -0.03570037343209254 0.0
0.0152237074068644 -0.03889735185793511 0.0
0.015549830175527227 -0.046133991177954574 0.0
0.015119864977075105 -0.03442175239296912 0.0
0.017567441118473737 -0.05188991504044074 0.0
0.015642081420513775 -0.04885378846126316 0.0
0.011383644118022496 -0.03627616778408735 0.0
0.010947394072869418 -0.0315460625690296 0.0
0.01910343729130382 -0.05048666951266122 0.0
0.016555953251784716 -0.052361398057204286 0.0
0.013580692368653212 -0.021816285274314853 0.0
0.015118440939030822 -0.024096063964667902 0.0
0.01486428156432522 -0.01854053281020392 0.0
0.014306167850040782 -0.050384340466969185 0.0
0.015187077860217835 -0.029487012910752994 0.0
0.008479881808648016 -0.03872717954838381 0.0
0.00950594763047549 -0.042636933983974584 0.0
0.016209167652299246 -0.052397880850856456 0.0
0.024545892949882197 -0.03396964674257373 0.0
0.021527353513707093 -0.04567660904834644 0.0
0.012531801748221424 -0.045814079772839474 0.0
0.01182611454291237 -0.042377101740864474 0.0
0.010352411672836835 -0.024903267451354363 0.0
0.02723657204886263 -0.006673644017124347 0.0
0.0055679083215069 -0.008696302271180843 0.0
0.01712281343914654 -0.018407277737976856 0.0
0.016820664321621225 -0.05143866557248671 0.0
0.01583715405083497 -0.05072761941338974 0.0
0.015497499961941883 -0.051295794573819053 0.0
0.014283918811679066 -0.008399351284046766 0.0
0.014492709861263267 -0.05179949184513838 0.0
0.026741234273433834 -0.018464467696904917 0.0
0.01537324297709958 -0.024019480743100098 0.0
0.02136222685065942 -0.01254986259821424 0.0
0.014761806915903158 -0.05109517032998047 0.0
0.0156311404985936 -0.042806304274508586 0.0
0.01577150051333724 -0.048842672180319215 0.0
0.015508764305370175 -0.0390286774065035 0.0
0.010481983355908877 -0.02220269842536124 0.0
0.010675096984379321 -0.031016750248690297 0.0
0.010324076797086176 -0.0258261228395989 0.0
0.013435553675111504 -0.048012114739369297 0.0
0.012673226273366322 -0.04506702096806428 0.0
0.016386146478202444 -0.05193305705237094 0.0
0.013006716779270568 -0.050475247823415614 0.0
0.022439966761513958 -0.020748891616326648 0.0
0.022661865978132505 -0.029465408157668533 0.0
0.020719250255216114 -0.04268688400472598 0.0
0.015625529142346634 -0.05145306542350562 0.0
0.018137621161798075 -0.05064470950673393 0.0
0.00532615060197848 -0.024337593236308887 0.0
0.009854454027732525 -0.020140907948175035 0.0
0.010354148785269428 -0.017297768813669925 0.0
0.01880524340784767 -0.026516534259599645 0.0
0.017838882994519908 -0.04429042940485388 0.0
0.018187076391130933 -0.04068625306343057 0.0
0.017165148340924124 -0.049690764267440166 0.0
0.019949955726768782 -0.046194007541944915 0.0
0.014709494289840024 -0.044470950388680264 0.0
0.015301960146260386 -0.04984376397096865 0.0
0.014457551438455443 -0.04085618145418534 0.0
0.026591555377194424 -0.011650879952186381 0.0
0.016044465590924605 -0.05202839915177065 0.0
0.01883613074435366 -0.04100253949543223 0.0
0.019058606625123167 -0.037190382744210514 0.0
0.01784849617308783 -0.04777223756299775 0.0
0.01736377015413035 -0.04745458711199399 0.0
0.01176975502055466 -0.04859698804049666 0.0
0.01645350215299623 -0.052426752513297196 0.0
0.017708040146984412 -0.044361835710857125 0.0
0.018449941769196183 -0.03179760765594118 0.0
0.01837962323303593 -0.02137293540844344 0.0
0.02160785557842809 -0.0456135401256307 0.0
0.010036275170455883 -0.011704271694148762 0.0
0.021934461010454424 -0.011101571276419154 0.0
0.02398979018183461 -0.038546167548612426 0.0
0.00892444459368652 -0.019554519195370046 0.0
0.01495956686248485 -0.0518672887648654 0.0
0.022202092695288084 -0.016928135056172737 0.0
0.02156777648269983 -0.017377888564094647 0.0