<VTKFile type="UnstructuredGrid"  version="0.1">
<UnstructuredGrid>
<Piece NumberOfPoints="713" NumberOfCells="1304">
<Points>
<DataArray type="Float64" NumberOfComponents="3" format="ascii">
0.0 0.0 0.0
10.0 0.0 0.0
10.0 2.0 0.0
5.0 2.0 0.0
0.0 2.0 0.0
0.199999999999856 0.0 0.0
0.3999999999996677 0.0 0.0
0.5999999999994683 0.0 0.0
0.7999999999993286 0.0 0.0
0.9999999999991888 0.0 0.0
1.199999999999033 0.0 0.0
1.399999999998576 0.0 0.0
1.599999999997992 0.0 0.0
1.799999999997408 0.0 0.0
1.999999999996825 0.0 0.0
2.199999999996241 0.0 0.0
2.399999999995657 0.0 0.0
2.599999999995073 0.0 0.0
2.79999999999449 0.0 0.0
2.999999999993906 0.0 0.0
3.199999999993322 0.0 0.0
3.399999999992738 0.0 0.0
3.599999999992154 0.0 0.0
3.799999999991571 0.0 0.0
3.999999999991022 0.0 0.0
4.199999999991187 0.0 0.0
4.399999999991491 0.0 0.0
4.599999999991795 0.0 0.0
4.799999999992099 0.0 0.0
4.999999999992403 0.0 0.0
5.199999999992706 0.0 0.0
5.39999999999301 0.0 0.0
5.599999999993313 0.0 0.0
5.799999999993618 0.0 0.0
5.999999999993922 0.0 0.0
6.199999999994227 0.0 0.0
6.39999999999453 0.0 0.0
6.599999999994833 0.0 0.0
6.799999999995138 0.0 0.0
6.999999999995442 0.0 0.0
7.199999999995747 0.0 0.0
7.39999999999605 0.0 0.0
7.599999999996353 0.0 0.0
7.799999999996658 0.0 0.0
7.999999999996962 0.0 0.0
8.199999999997265 0.0 0.0
8.399999999997569 0.0 0.0
8.599999999997873 0.0 0.0
8.799999999998176 0.0 0.0
8.99999999999848 0.0 0.0
9.199999999998786 0.0 0.0
9.399999999999089 0.0 0.0
9.599999999999392 0.0 0.0
9.799999999999697 0.0 0.0
10.0 0.1999999999996293 0.0
10.0 0.3999999999991157 0.0
10.0 0.5999999999985328 0.0
10.0 0.7999999999979498 0.0
10.0 0.9999999999973885 0.0
10.0 1.199999999997894 0.0
10.0 1.39999999999842 0.0
10.0 1.599999999998947 0.0
10.0 1.799999999999474 0.0
9.799999999999999 2.0 0.0
9.6 2.0 0.0
9.399999999999999 2.0 0.0
9.2 2.0 0.0
8.999999999999998 2.0 0.0
8.799999999999999 2.0 0.0
8.599999999999998 2.0 0.0
8.399999999999999 2.0 0.0
8.2 2.0 0.0
7.999999999999998 2.0 0.0
7.799999999999999 2.0 0.0
7.599999999999999 2.0 0.0
7.399999999999999 2.0 0.0
7.199999999999999 2.0 0.0
7.0 2.0 0.0
6.799999999999999 2.0 0.0
6.6 2.0 0.0
6.399999999999999 2.0 0.0
6.199999999999999 2.0 0.0
5.999999999999999 2.0 0.0
5.8 2.0 0.0
5.6 2.0 0.0
5.399999999999999 2.0 0.0
5.199999999999999 2.0 0.0
4.8 2.0 0.0
4.6 2.0 0.0
4.399999999999999 2.0 0.0
4.199999999999998 2.0 0.0
3.999999999999999 2.0 0.0
3.799999999999999 2.0 0.0
3.599999999999999 2.0 0.0
3.399999999999999 2.0 0.0
3.199999999999998 2.0 0.0
2.999999999999999 2.0 0.0
2.799999999999999 2.0 0.0
2.599999999999999 2.0 0.0
2.399999999999999 2.0 0.0
2.199999999999999 2.0 0.0
2.0 2.0 0.0
1.799999999999999 2.0 0.0
1.599999999999999 2.0 0.0
1.399999999999999 2.0 0.0
1.199999999999999 2.0 0.0
0.9999999999999991 2.0 0.0
0.7999999999999998 2.0 0.0
0.5999999999999996 2.0 0.0
0.3999999999999995 2.0 0.0
0.1999999999999993 2.0 0.0
0.0 1.799999999999167 0.0
0.0 1.6 0.0
0.0 1.400000000001387 0.0
0.0 1.200000000002774 0.0
0.0 1.000000000004117 0.0
0.0 0.8000000000033287 0.0
0.0 0.6000000000024965 0.0
0.0 0.4000000000016644 0.0
0.0 0.200000000000832 0.0
1.499207686858938 0.9671416246672391 0.0
2.690335006295381 0.9619521672166851 0.0
3.892537609238439 1.007271393615351 0.0
8.916602958236062 0.9848120741100651 0.0
7.714518201951718 1.024234589865042 0.0
6.514518201951581 1.024234589865268 0.0
5.299999999999998 1.000000000000349 0.0
0.7620577975594133 1.201991596673393 0.0
4.61755859746166 1.240410629378135 0.0
2.099999999996533 0.6749999999988996 0.0
3.289480163184942 0.6802242156869155 0.0
8.299999999999976 1.325000000000064 0.0
7.110519836808121 1.319775784312006 0.0
5.893184537067197 1.292851873188582 0.0
3.268568008578649 1.341967835735878 0.0
2.118368267083699 1.321829331075689 0.0
5.930896443153832 0.6493414313150682 0.0
7.106926174231782 0.6329785805444448 0.0
8.306926174233002 0.6329785805444098 0.0
4.427960725065653 0.6389803625370323 0.0
0.9828791719046732 0.6520555711814596 0.0
9.383333333333349 0.6166666666667164 0.0
9.383333333333326 1.383333333333367 0.0
4.974443803660211 0.5526668589022862 0.0
1.248084267804327 1.464555585366204 0.0
4.139486343919472 1.468449088519687 0.0
5.077806736162063 1.478342020848787 0.0
1.629462398503482 0.5098631373669138 0.0
2.579462070540726 0.5133714280880515 0.0
3.770778974032556 0.5099482598296803 0.0
8.764748922637567 1.526880805960684 0.0
7.820537929455645 1.486628571911716 0.0
6.632254923791462 1.492045881343967 0.0
2.796478414430566 1.477149214423874 0.0
6.403521585563812 0.5228507855762514 0.0
7.603521585564883 0.5228507855756581 0.0
8.783559188644787 0.5066440811355862 0.0
0.5060338924245764 0.5082251307884346 0.0
5.451633334958382 0.4799315318847731 0.0
1.683269995544083 1.547372422998862 0.0
0.448590368789599 1.551409631210402 0.0
5.545526974704655 1.582008455135239 0.0
3.666056976948354 1.56999765613834 0.0
0.4385739326402744 0.9352922270094057 0.0
9.58170539854767 0.9922137522194456 0.0
4.93200119575972 0.9247090920592975 0.0
6.20679636316332 1.642443126922768 0.0
7.418963044745086 1.587405313446662 0.0
2.98103695524982 0.412594686552066 0.0
2.420975602092416 1.592770352831584 0.0
7.97902439790374 0.4072296471687943 0.0
6.779024397902082 0.4072296471687297 0.0
1.130444757308209 0.9859238872709168 0.0
0.8901814758011342 1.60566856081121 0.0
4.263670373274499 0.9915754392410991 0.0
3.096698167273431 1.009056907826855 0.0
6.088506433998166 0.9857489435828969 0.0
1.902225037409936 1.003483800311746 0.0
7.288506433998439 0.9857489435828686 0.0
8.498964973312972 1.005823551167602 0.0
2.307571737417198 1.008136792450924 0.0
8.100397971125554 1.000138280273345 0.0
6.900397971125225 1.000138280273792 0.0
3.499307350770321 0.9996496628144824 0.0
5.703656022566558 0.9885479657552226 0.0
4.719420624357892 1.622286409566126 0.0
4.099803549896894 0.3600308081356619 0.0
1.286100671532495 0.3637431910670685 0.0
9.120549139677793 1.655065205594329 0.0
9.11726214008418 0.3400668903113251 0.0
4.642568097328033 0.3514924793220939 0.0
9.630437629189052 0.3309104953729904 0.0
9.674493769554315 1.668196579944218 0.0
1.936458797611609 0.3337070483410596 0.0
3.461817573918652 0.3447876019040473 0.0
8.440152788772068 1.649667667046397 0.0
6.973083089482548 1.643748677366674 0.0
3.126874515006838 1.659115470008545 0.0
6.070607878384977 0.3410183041038941 0.0
7.255014454789089 0.32792256737713 0.0
8.462493615948901 0.3368393217476116 0.0
9.236261261261264 0.9276047786917867 0.0
5.885444386845415 1.667751020273455 0.0
0.8062340689595878 0.3261579034781319 0.0
2.29463843780282 0.308358158429197 0.0
8.10536156219338 1.691641841570632 0.0
4.041916759198581 0.7211683801597477 0.0
1.324377365289917 0.710525897087282 0.0
9.023167917315867 1.292262965009952 0.0
2.044244009166302 1.693807225416931 0.0
0.7675765545556328 0.8969765944392112 0.0
2.86965991063896 0.7069213925303978 0.0
6.330340089355722 1.293078607468788 0.0
7.530340089355831 1.29307860746885 0.0
2.509347777214458 1.27231292939881 0.0
7.890652222779963 0.7276870706009825 0.0
6.690652222780154 0.7276870706013264 0.0
4.380959112578968 1.65866292149053 0.0
0.3278422400819535 1.233362752678148 0.0
5.754468991464942 0.3469215055361071 0.0
9.69195804401614 0.7000195364707393 0.0
9.691250997975434 1.303243780084337 0.0
5.54324561063747 1.237401556904767 0.0
9.044596057577811 0.6843248705785732 0.0
5.208929198448351 0.3519433027337513 0.0
3.708880196230617 1.249762029554333 0.0
1.713349558540635 1.234899745098077 0.0
4.586522821995393 0.9261740906803194 0.0
5.241145838821565 0.7007005766013242 0.0
1.434457446926135 1.701926055218157 0.0
0.2821921707428039 0.3393165318407161 0.0
3.42846431357046 1.714274134409306 0.0
5.26283485467567 1.710141275531951 0.0
3.966530105129177 1.718376080180638 0.0
4.891301048299285 1.259923533724591 0.0
0.2787500712946937 0.6906723798523376 0.0
1.822166578929051 0.7301892210727335 0.0
8.593276160688786 1.287322908694633 0.0
2.386017956680413 0.7288816957021155 0.0
3.576911792171353 0.7225526638483954 0.0
8.013982043315597 1.271118304297217 0.0
6.82303669320588 1.277631295759485 0.0
2.891837633696712 1.215141906356511 0.0
8.708162366297856 0.7848580936429009 0.0
7.496736072543097 0.7897651325976158 0.0
6.296736072542775 0.7897651325982009 0.0
5.523181420933933 0.7588744249744506 0.0
4.725538117155759 0.6529070682798582 0.0
2.736307197014292 0.273961667653487 0.0
7.663692802980817 1.726038332346062 0.0
6.446842959287713 1.783714797320288 0.0
1.126188383272983 1.743715177525389 0.0
2.64757240694847 1.787239829472812 0.0
6.546646507559373 0.2589894635657943 0.0
7.746646507561152 0.2589894635657218 0.0
4.079302268890254 1.221431431691139 0.0
4.433746883463333 0.2983726043497702 0.0
1.032697650548726 1.318076986199429 0.0
1.309492735411376 1.208980965369829 0.0
3.896105387998365 0.2579746081881307 0.0
9.378751775005455 1.725996478164223 0.0
9.3965279828929 0.2649862374471925 0.0
1.515757555362918 0.2603060454608533 0.0
4.959097093232828 1.726144293543605 0.0
4.912501341257775 0.2529154558175828 0.0
4.342421824442713 1.285376618065631 0.0
7.023506283123107 0.293611963231815 0.0
8.215829626877609 0.2682061590942965 0.0
5.28145265730745 1.291130016052329 0.0
8.693992162747364 1.744100892812201 0.0
0.6256567126095668 1.775064851453201 0.0
0.2724967459749605 1.756941612685287 0.0
8.90781713264278 0.2741674349222226 0.0
7.184202236567151 1.709454269177068 0.0
3.212962614055919 0.2641656831057426 0.0
0.6761590188374282 0.6746441670621973 0.0
1.020489328989316 0.2487299689497893 0.0
1.485017749467193 1.402133856149482 0.0
6.734223224917944 1.790518105434539 0.0
2.657549589911705 0.7636227781082678 0.0
6.542590471647475 1.237213715285722 0.0
7.742745187066703 1.235538225115726 0.0
0.5794341726414672 0.2480285055479751 0.0
1.842901067642841 1.760146518280044 0.0
3.84389577648662 0.7524680119172447 0.0
3.061589173628368 1.407936939342627 0.0
6.144447294584154 0.5911674363009913 0.0
7.344447294585433 0.5911674362995804 0.0
8.544447294586682 0.5911674362982269 0.0
5.491507940982565 0.1734458797927824 0.0
[...]
<PointData Vectors="fields">
<DataArray type="Float64" Name="U" NumberOfComponents="3" format="ascii">
0.0 0.0 0.0
0.03143774107487529 0.0 0.0
0.002495445006106566 -0.006026439225035701 0.0
0.01566685901394973 -0.050214747934552655 0.0
0.02859521590358486 -0.005444323724360819 0.0
0.0003251084143042339 -0.005982564081944985 0.0
0.0009769930164963202 -0.009825776211266549 0.0
0.001564289467778277 -0.013221221673948865 0.0
0.0020571604538085113 -0.01620582071531721 0.0
0.0024891686974315612 -0.019053248684864497 0.0
0.00290611778142831 -0.02178854953904057 0.0
0.0033255381572128927 -0.024421322581079687 0.0
0.0037858165009876346 -0.026965386799353487 0.0
0.0042610529439916596 -0.029421921757684474 0.0
0.0047737832116235114 -0.03176464394727416 0.0
0.005311485455390325 -0.033992948591866745 0.0
0.0058967870273626405 -0.03610842764491313 0.0
0.006491828442943582 -0.03809396862494955 0.0
0.007146416384191915 -0.03994960151417722 0.0
0.00779862343628132 -0.04166804367967993 0.0
0.008503237489066172 -0.04324208483691155 0.0
0.009210546618056916 -0.0446589679139035 0.0
0.009954713539971157 -0.045929010807794095 0.0
0.010705302863331856 -0.047011422121261505 0.0
0.011464255190309584 -0.04798313620347312 0.0
0.01225484683401092 -0.04876880651067077 0.0
0.01303750106503785 -0.04938207986054903 0.0
0.013843916057965462 -0.04983383196539272 0.0
0.014637776912245987 -0.05010594897874111 0.0
0.0154645342643368 -0.05021499860807009 0.0
0.016268957853519866 -0.050152489001870304 0.0
0.017073343516183517 -0.049914400828040606 0.0
0.017874255488882558 -0.049508593319732015 0.0
0.018665199830394646 -0.04892926491963713 0.0
0.019434846885851 -0.0481894216007619 0.0
0.020220998089460554 -0.04729494889486005 0.0
0.020964946267050595 -0.046194319791083696 0.0
0.021711797420099682 -0.04498701688077603 0.0
0.02242578684218831 -0.04361877039398573 0.0
0.02313946569310446 -0.0420743716680026 0.0
0.023813713517516686 -0.04038639508461392 0.0
0.024464735889473566 -0.03856209521608276 0.0
0.025069361865290372 -0.036569742548192154 0.0
0.025661185571328578 -0.03449402986505397 0.0
0.02620739336250002 -0.03228867998820539 0.0
0.02673288722504693 -0.029957000469047805 0.0
0.027215779061005675 -0.027509536404969278 0.0
0.027677819829352808 -0.024973108825620503 0.0
0.02810026243186838 -0.022338604186333426 0.0
0.028533162870688987 -0.019601558531764554 0.0
0.02896014892804719 -0.01676412544000037 0.0
0.029438908868114518 -0.013763064904929356 0.0
0.029975564341570143 -0.01049853924362453 0.0
0.030808719320953613 -0.006587193610609584 0.0
0.026466564479047903 -0.002387877858534557 0.0
0.023295352219532165 -0.003699211565810624 0.0
0.02042654843787133 -0.0045288860885885195 0.0
0.017798364411393822 -0.005151514365765218 0.0
0.015249496384629628 -0.005540625858662002 0.0
0.01274704317724517 -0.005792742604320054 0.0
0.010246325013658747 -0.005944367489974467 0.0
0.007707532841181667 -0.006012161381341828 0.0
0.005122734459843966 -0.006026228110188401 0.0
0.0024935335457037877 -0.008663596193138818 0.0
0.0025011825372866915 -0.01133526198638285 0.0
0.002551508309508673 -0.014048496029971394 0.0
0.0026670841686114895 -0.01678978421206755 0.0
0.002858359351823698 -0.01952016244066266 0.0
0.0031188455084589766 -0.022203675682679613 0.0
0.0034520766780701843 -0.024851387574142528 0.0
0.003845670237656613 -0.027405094704905802 0.0
0.004301671234671789 -0.029863043965688976 0.0
0.0048254818828656915 -0.03222124172506208 0.0
0.005377107384175438 -0.034453545165024906 0.0
0.005997422166430732 -0.036564137598395004 0.0
0.006622494252788421 -0.038539493046602896 0.0
0.007299669671643472 -0.040372696904128855 0.0
0.007988596585556288 -0.042065277013389586 0.0
0.008697606033630982 -0.043605682547588856 0.0
0.009405968482397975 -0.04495725468682982 0.0
0.01015080012946034 -0.04621875726725416 0.0
0.010909988469110109 -0.04727951729858901 0.0
0.011663624018562094 -0.04818435428770041 0.0
0.012449806133126965 -0.04893389754363323 0.0
0.013260133785562192 -0.04950775930606939 0.0
0.014042235435630627 -0.049912274541913215 0.0
0.014860284678071753 -0.05015063050062303 0.0
0.016491883688758098 -0.05009426513683202 0.0
0.01728055547014248 -0.0498198285231264 0.0
0.018062072056206965 -0.04937808814811163 0.0
0.018860940533015128 -0.04877674588743577 0.0
0.019651064230806356 -0.047985001683929836 0.0
0.020436753122263555 -0.04703146723790369 0.0
0.021170454452372665 -0.04592505009059869 0.0
0.021911298402071337 -0.044657106696031075 0.0
0.02262635764557882 -0.04324190373968144 0.0
0.023329825057981347 -0.041670620532581415 0.0
0.023985355507588603 -0.03992035820872848 0.0
0.024633236614235915 -0.03808652434362119 0.0
0.025233785428029093 -0.03608511689321361 0.0
0.02579771722502275 -0.03395653438151455 0.0
0.0263424959242264 -0.031706359811398514 0.0
0.026836205691262487 -0.02934090545210338 0.0
0.02726890044579153 -0.026877437695155774 0.0
0.027666749387576454 -0.02431036395514387 0.0
0.027989475510351955 -0.021669148655116148 0.0
0.02824765317090746 -0.01896235278469906 0.0
0.02842695095352938 -0.016229920001302398 0.0
0.028534118211189008 -0.013483936203893177 0.0
0.028586746055766207 -0.010767007068640503 0.0
0.028599251712037012 -0.00808503697524269 0.0
0.025961078147643295 -0.005445653237176027 0.0
0.023368243869812472 -0.00543227317591762 0.0
0.020825067542304985 -0.005370221461298584 0.0
0.018309572127177095 -0.005227496409006528 0.0
0.01580259815049942 -0.00496415402741517 0.0
0.013247152052055101 -0.004590696169430673 0.0
0.010610921093495557 -0.003993976103308993 0.0
0.007763114633406939 -0.003168882525078493 0.0
0.004381764251650255 -0.0017910850196811386 0.0
0.0152356345040507 -0.025822669291010413 0.0
0.015236899026547485 -0.0392304540476512 0.0
0.015586671439683895 -0.047840606511233695 0.0
0.015543614531856275 -0.020802147539846216 0.0
0.015285025207581512 -0.03565745933948045 0.0
0.015414247326733514 -0.04587141105026413 0.0
0.015556928612691355 -0.05041493893295611 0.0
0.018278133182217944 -0.01572347668533036 0.0
0.015945610937575874 -0.05019940369717643 0.0
0.012241799980860467 -0.03309921311691765 0.0
0.013457782799497064 -0.04418373905412075 0.0
0.011877296156368358 -0.02884970061139378 0.0
0.013071601427913342 -0.041424015406632216 0.0
0.01457041498096039 -0.04893542634675936 0.0
0.017835954500291226 -0.044032700331659735 0.0
0.01883665284094519 -0.03327658564875103 0.0
0.016791811663636 -0.048783555028647695 0.0
0.01838097593716032 -0.041459957058162404 0.0
0.019573873173096678 -0.028830655812403874 0.0
0.014715309950242197 -0.049773861419865686 0.0
0.011350954035803655 -0.01887345024521411 0.0
0.020159973549775768 -0.014082492863892524 0.0
0.010504056115142758 -0.01426267714709584 0.0
0.015465729971672 -0.050497014022065904 0.0
0.02120048142383067 -0.022426080926566987 0.0
0.017190405149937513 -0.048821043069505334 0.0
0.015455118820034208 -0.05048225365812273 0.0
0.009988398525902598 -0.027475755807069853 0.0
0.011215774913262134 -0.038106796045352255 0.0
0.013174135930940597 -0.04714045300661088 0.0
0.009121872632573082 -0.022790442641580165 0.0
0.01067928718693321 -0.03443148619268151 0.0
0.012539471092494198 -0.04502088341799867 0.0
0.019490870545261618 -0.04013605092392616 0.0
0.018087315719369956 -0.046455782357990534 0.0
0.0199737848858374 -0.03676079411976749 0.0
0.021444159371930963 -0.022660469286676237 0.0
0.009386879111474095 -0.01178222667459794 0.0
0.016436306060123355 -0.05009178145296405 0.0
0.021738500712635667 -0.02805509334997278 0.0
0.022720166797451095 -0.011400514068282208 0.0
0.014367024722625488 -0.04987830907835836 0.0
0.018567245823285936 -0.046538807404073235 0.0
0.015038886131289378 -0.010981436625050198 0.0
0.015292443332500079 -0.01128979611894785 0.0
0.015530338808208153 -0.050571217074157584 0.0
0.012607977858272813 -0.0474492819993211 0.0
0.01038501237365288 -0.03854829997547443 0.0
0.011060162030582459 -0.041710229347332047 0.0
0.021138464656445678 -0.03648066192729083 0.0
0.021689500321224676 -0.03267523796298488 0.0
0.01950796412646088 -0.0439716111384517 0.0
0.015515094787868179 -0.020896279067234385 0.0
0.02320794526780464 -0.017510569537889303 0.0
0.01553405471352792 -0.04934090103675829 0.0
0.015627019022679888 -0.04275529667267164 0.0
0.015615827768869672 -0.04815974196769216 0.0
0.015617464718251664 -0.030819812206574624 0.0
0.015653407717915225 -0.039881368104677205 0.0
0.015378115017893601 -0.0263882855293755 0.0
0.01564414362879971 -0.03539108084706454 0.0
0.015488898642545223 -0.03131770160283694 0.0
0.015541748161340591 -0.04317072003066216 0.0
0.015555534624304718 -0.045648312801886824 0.0
0.015580462086643163 -0.04958930462575908 0.0
0.01631758082826007 -0.05024768587601735 0.0
0.013233592956203764 -0.04861441627079496 0.0
0.007827756316933991 -0.02303865588651942 0.0
0.007240894557701648 -0.01792073981660554 0.0
0.02391769299261564 -0.018027340792810195 0.0
0.014575661069689527 -0.050123885985591546 0.0
0.024222403552811876 -0.010040130752629833 0.0
0.006845746643932772 -0.010317722879781497 0.0
0.008388896856610565 -0.031163877447088623 0.0
0.011612810792669405 -0.04527354160544317 0.0
0.008018386460084235 -0.027013275996163183 0.0
0.01082415628301191 -0.042469432275996026 0.0
0.020303724252091548 -0.042863150176830234 0.0
0.0182549470169942 -0.04809658623684612 0.0
0.021120263163502188 -0.04006550059317563 0.0
0.023204676826302065 -0.026845049456196108 0.0
0.016169493343408708 -0.016288475771269083 0.0
0.013306431739885598 -0.04883783586585477 0.0
0.006853255971507383 -0.01636487480048605 0.0
0.008768405110944302 -0.035148517537202446 0.0
0.008062342666232274 -0.031119302114074397 0.0
0.01449182939253036 -0.04849237869416996 0.0
0.012174520340046466 -0.02355308321366142 0.0
0.011779171569628365 -0.01929713094958093 0.0
0.022837118355453767 -0.03234802700228079 0.0
0.014495159780020209 -0.015779825097586242 0.0
0.0132257146983915 -0.04084442270245314 0.0
0.014091402074287381 -0.04692856743714432 0.0
0.012878607551782339 -0.03753915384002816 0.0
0.018032622192626163 -0.03744545467077051 0.0
0.018258851910352043 -0.033728873498879 0.0
0.017270785899441633 -0.044689813371642795 0.0
0.017243676247905328 -0.049543169327782265 0.0
0.018761301435419663 -0.009607770124528828 0.0
0.017436604720684465 -0.049282592750476 0.0
0.018998144129122818 -0.00937225223087223 0.0
0.011436400231246565 -0.009963723202595922 0.0
0.015076934223726024 -0.049979727030332134 0.0
0.01927462350854839 -0.019041976663406117 0.0
0.016031727392176582 -0.050362845404770755 0.0
0.01682490393241099 -0.04687527426512829 0.0
0.018200976923197044 -0.028498577823922216 0.0
0.015435090077330793 -0.050161888772678735 0.0
0.015809357821753873 -0.05045570030618534 0.0
0.023874669372502377 -0.024849243704803046 0.0
0.006938708730044515 -0.00792161126187593 0.0
0.01996200552247188 -0.04501149771549343 0.0
0.014893168950257354 -0.05028259692564813 0.0
0.01854910255047651 -0.048022317991574845 0.0
0.015695237902023422 -0.05050816718713382 0.0
0.011910155453907313 -0.008364634229208317 0.0
0.012635877924762541 -0.02986037534812666 0.0
0.012092089267213465 -0.025110094979264884 0.0
0.013010507751087669 -0.03620115609989213 0.0
0.014025040786525136 -0.04610147954367349 0.0
0.012689677004270167 -0.032293361867042215 0.0
0.01367917556193125 -0.04372661652643827 0.0
0.017257642305376505 -0.0410331608334536 0.0
0.017977972190440013 -0.02366167369569839 0.0
0.01740905097362534 -0.03787921312548589 0.0
0.016582912750246547 -0.047109836125094076 0.0
0.01602555471919595 -0.050023897182349425 0.0
0.015146466446411927 -0.050344610831486176 0.0
0.00938565031671331 -0.039512707152109236 0.0
0.00857546379770861 -0.03603855965249027 0.0
0.011235947794685034 -0.04606259571489555 0.0
0.024758804108904294 -0.020732634735806815 0.0
0.022497687364708537 -0.038642167504682995 0.0
0.019918384853271066 -0.04548548717337472 0.0
0.022822368156169587 -0.03518622775234126 0.0
0.016373223004585012 -0.04864432816545726 0.0
0.013908818824847707 -0.049655542115439516 0.0
0.019574443516203948 -0.01950843698661457 0.0
0.018120288495675325 -0.02328970755458698 0.0
0.01226518231066735 -0.04767252192248365 0.0
0.0061802914884907184 -0.014351929099903689 0.0
0.025237547979285815 -0.013872242027874574 0.0
0.006841507574550527 -0.026006452173091384 0.0
0.015753933458049648 -0.05038623898639241 0.0
0.015224135758797127 -0.050352360422080675 0.0
0.016322610859034952 -0.04954825070500498 0.0
0.020878277378200142 -0.042039510726949 0.0
0.0236226892340429 -0.029867727361990365 0.0
0.015264448088509781 -0.05040438051182132 0.0
0.006542153183210344 -0.023686881939199073 0.0
0.0255320021049561 -0.013850616668867659 0.0
0.025389344014981677 -0.009042547715796868 0.0
0.024603590659165644 -0.0209584018117129 0.0
0.009821996993896909 -0.04066396268775353 0.0
0.010469639506013763 -0.0434850681506169 0.0
0.01164637324075329 -0.014424138417936438 0.0
0.005981785707673044 -0.019406870576192017 0.0
0.02026533224318516 -0.02556383674663198 0.0
0.010369031522891297 -0.04418447008627366 0.0
0.013515022312355504 -0.03890739220478066 0.0
0.014180669750426787 -0.045672556728610515 0.0
0.01323815083653682 -0.0353313886563793 0.0
0.0055338930366996 -0.012917093954594389 0.0
0.02393442159783276 -0.02994980629965635 0.0
0.014424403887981106 -0.04757590334966551 0.0
0.01855800944805502 -0.042418295055480844 0.0
0.017324059489047056 -0.04783657039178651 0.0
0.019006256136157924 -0.03931314166354309 0.0
0.02022612659361127 -0.025817730292020474 0.0
0.017096878445092858 -0.049868262610866756 0.0
0.013041464667101817 -0.026653061298474535 0.0
0.021595760013205092 -0.04123978901324807 0.0
0.02240837848680134 -0.03818047423799286 0.0
0.019231897899664417 -0.04715990399911228 0.0
0.021546900918438666 -0.014588014090441706 0.0
0.012959379445060187 -0.01422785189035622 0.0
0.013620009250091703 -0.04941829264815177 0.0
0.017378910027055078 -0.04769080242769902 0.0
0.008218116892953058 -0.037305380334609506 0.0
0.007363490948517704 -0.033542279133943545 0.0
0.016855399028328777 -0.04940673998724878 0.0
0.0126170962452881 -0.0226730295417065 0.0
0.02104034398434913 -0.03138759903221126 0.0
0.017786948886973204 -0.012663021999293275 0.0
0.0181505228692375 -0.04887340728371534 0.0
0.021990733506663095 -0.007494415255713538 0.0
0.011460036740890064 -0.046416511627791215 0.0
0.006793081854564659 -0.028880524695278825 0.0
0.016529869331038186 -0.04997248901742877 0.0
0.012305207987847868 -0.048010300733983456 0.0
0.017821306187247133 -0.045769527868711954 0.0
0.023454476323809453 -0.03494763150096023 0.0
0.015543369548207637 -0.05056678338867619 0.0
0.01610409203854705 -0.00834415255001703 0.0
0.014537931909715009 -0.04961665838760376 0.0
0.01524779709303123 -0.048932020420127204 0.0
0.014435797269998845 -0.028885513803825022 0.0
0.014793227207040745 -0.04143925744924582 0.0
0.014613928612590326 -0.03311010063172848 0.0
0.014917674817009625 -0.04418235739466465 0.0
0.005752981446391798 -0.020328136941343874 0.0
0.016412654565204205 -0.008248279252898378 0.0
0.019533306166210195 -0.04683328199009226 0.0
0.015557127159013293 -0.05056296649584328 0.0
0.015130447393794847 -0.05039259668402872 0.0
0.012316659452124143 -0.011064117908488278 0.0
0.025251775684870675 -0.023723403979692036 0.0
0.01966103827955151 -0.03153443957994053 0.0
0.01973432632539771 -0.035283205666415476 0.0
0.018285166730809006 -0.043269920885583305 0.0
0.012261508564267911 -0.03960483871041091 0.0
0.012720399924903288 -0.04263201856497588 0.0
0.013964691269130816 -0.04808377986814035 0.0
0.00711558099837545 -0.0331263139719014 0.0
0.006360925405663862 -0.028889810016207003 0.0
0.01303630498089166 -0.04632178357335132 0.0
0.011162835982015703 -0.036590201227974906 0.0
0.011692311091979345 -0.040009403132458446 0.0
0.017968141063420023 -0.03092774580968198 0.0
0.01735944417554778 -0.013420045806529947 0.0
0.009128920333296306 -0.008543387215703658 0.0
0.021427989596313292 -0.00734773179242891 0.0
0.016330751535355046 -0.044150934633501185 0.0
0.016757225570883993 -0.03329273662623748 0.0
0.015984687460370645 -0.048849544959127356 0.0
0.016478632655947324 -0.041383680558445234 0.0
0.01681285191432984 -0.0286798251355889 0.0
0.024160365217744825 -0.02750300320042826 0.0
0.009401052348150085 -0.006398000806241478 0.0
0.019744641856604937 -0.03840645850478062 0.0
0.018387317939819674 -0.04532055765514294 0.0
0.02019434389239115 -0.03480843090456417 0.0
0.014661400461407813 -0.03738041895146941 0.0
0.014988568461673304 -0.04465226533186522 0.0
0.014511318808621882 -0.03358596349294065 0.0
0.01703464247919781 -0.04988668983106352 0.0
0.015061376517660988 -0.04687938647271407 0.0
0.011007036101423803 -0.03489512950668828 0.0
0.010517194584362378 -0.030830741984918707 0.0
0.018308706649400142 -0.04870791148280871 0.0
0.01601483559655422 -0.05034716482916211 0.0
0.013096135150324697 -0.021108191832857916 0.0
0.014564092545287627 -0.02328903594306423 0.0
0.014220280473864668 -0.018302814667411203 0.0
0.013747992293002356 -0.04837929773191835 0.0
0.014628816160855032 -0.028436178019114293 0.0
0.008269121729457707 -0.0376840452839418 0.0
0.009179918173227133 -0.040945641661443884 0.0
0.015641844360747236 -0.050377626521445826 0.0
0.023483868265261908 -0.03315980812218308 0.0
0.02058541989358726 -0.04423601187040703 0.0
0.012056281570622909 -0.043965794400300046 0.0
0.011476540070917637 -0.04113271704304681 0.0
0.01001540487491551 -0.024062549092684803 0.0
0.02617519193736929 -0.006717567191478221 0.0
0.005265560241983516 -0.008800870648657361 0.0
0.016481579137157983 -0.0178421632347317 0.0
0.016191040060618188 -0.04957332127134672 0.0
0.015256774150578252 -0.04870787701976879 0.0
0.014918801906629522 -0.049269809840737776 0.0
0.013651301302932793 -0.008497826788283303 0.0
0.014095783748689396 -0.04990411188329304 0.0
0.025672130072811116 -0.017900093134696718 0.0
0.014719255643667998 -0.02359339004764143 0.0
0.020537893832414843 -0.012229019439329237 0.0
0.01419026753027018 -0.049076214616340076 0.0
0.015048595779298743 -0.04108916719121524 0.0
0.015212289210237142 -0.04717348397927044 0.0
0.014904369757323057 -0.0379701062881195 0.0
0.010135375749977159 -0.021479487880380996 0.0
0.01033225738143763 -0.029895366424242377 0.0
0.009882383602298832 -0.02533027986309217 0.0
0.01291457155065781 -0.0460759392742298 0.0
0.012302674504957006 -0.04365656432730565 0.0
0.015815318594100843 -0.04990381674923692 0.0
0.012473677067163493 -0.04848404083080896 0.0
0.02155654642847731 -0.020086408125290667 0.0
0.02170266211019808 -0.028842513148563544 0.0
0.019827485363163946 -0.041426389638414655 0.0
0.015097273957478227 -0.04958396889987431 0.0
0.017412492005112926 -0.04884793391486829 0.0
0.005211600520170258 -0.02352543738919924 0.0
0.0094095643253582 -0.019846998394532397 0.0
0.009883208881264718 -0.01710154210259744 0.0
0.018013321033573445 -0.02600358233432719 0.0
0.017166403279903673 -0.04250339405565526 0.0
0.01743776999025837 -0.03953796541292651 0.0
0.016509093556877817 -0.04796165388025407 0.0
0.019212067081588218 -0.04433034667760155 0.0
0.014161859498271308 -0.04267396708914856 0.0
0.01478600297542168 -0.04810109174974645 0.0
0.013927281226121786 -0.039698646034585255 0.0
0.025538268097168956 -0.01137130427486081 0.0
0.015482648127222559 -0.05010892131516341 0.0
0.01810327173090965 -0.03938209454283242 0.0
0.018257357813471476 -0.0362256194894933 0.0
0.017140513007303855 -0.04618150037483144 0.0
0.01673246358394746 -0.04552823039123102 0.0
0.01151689480266712 -0.0469526809400827 0.0
0.015822540075898693 -0.05045938717763297 0.0
0.01699760695106544 -0.04299569578072607 0.0
0.01767567969898758 -0.031076864507505967 0.0
0.017602476579368073 -0.0210423632417692 0.0
0.020791129934233293 -0.04378713273703029 0.0
0.009569318592546044 -0.011698910457977336 0.0
0.021020416849256474 -0.011084638546927367 0.0
0.02300017454313884 -0.03706413383610192 0.0
0.008641676808015388 -0.018943339708924818 0.0
0.01437348960919451 -0.049849276046000486 0.0
0.021282958399832748 -0.016746147256600823 0.0
0.020728692096606795 -0.016857060101667622 0.0
0.01642137344957312 -0.0478540426131354 0.0