<VTKFile type="UnstructuredGrid"  version="0.1">
<UnstructuredGrid>
<Piece NumberOfPoints="713" NumberOfCells="1304">
<Points>
<DataArray type="Float64" NumberOfComponents="3" format="ascii">
0.0 0.0 0.0
10.0 0.0 0.0
10.0 2.0 0.0
5.0 2.0 0.0
0.0 2.0 0.0
0.199999999999856 0.0 0.0
0.3999999999996677 0.0 0.0
0.5999999999994683 0.0 0.0
0.7999999999993286 0.0 0.0
0.9999999999991888 0.0 0.0
1.199999999999033 0.0 0.0
1.399999999998576 0.0 0.0
1.599999999997992 0.0 0.0
1.799999999997408 0.0 0.0
1.999999999996825 0.0 0.0
2.199999999996241 0.0 0.0
2.399999999995657 0.0 0.0
2.599999999995073 0.0 0.0
2.79999999999449 0.0 0.0
2.999999999993906 0.0 0.0
3.199999999993322 0.0 0.0
3.399999999992738 0.0 0.0
3.599999999992154 0.0 0.0
3.799999999991571 0.0 0.0
3.999999999991022 0.0 0.0
4.199999999991187 0.0 0.0
4.399999999991491 0.0 0.0
4.599999999991795 0.0 0.0
4.799999999992099 0.0 0.0
4.999999999992403 0.0 0.0
5.199999999992706 0.0 0.0
5.39999999999301 0.0 0.0
5.599999999993313 0.0 0.0
5.799999999993618 0.0 0.0
5.999999999993922 0.0 0.0
6.199999999994227 0.0 0.0
6.39999999999453 0.0 0.0
6.599999999994833 0.0 0.0
6.799999999995138 0.0 0.0
6.999999999995442 0.0 0.0
7.199999999995747 0.0 0.0
7.39999999999605 0.0 0.0
7.599999999996353 0.0 0.0
7.799999999996658 0.0 0.0
7.999999999996962 0.0 0.0
8.199999999997265 0.0 0.0
8.399999999997569 0.0 0.0
8.599999999997873 0.0 0.0
8.799999999998176 0.0 0.0
8.99999999999848 0.0 0.0
9.199999999998786 0.0 0.0
9.399999999999089 0.0 0.0
9.599999999999392 0.0 0.0
9.799999999999697 0.0 0.0
10.0 0.1999999999996293 0.0
10.0 0.3999999999991157 0.0
10.0 0.5999999999985328 0.0
10.0 0.7999999999979498 0.0
10.0 0.9999999999973885 0.0
10.0 1.199999999997894 0.0
10.0 1.39999999999842 0.0
10.0 1.599999999998947 0.0
10.0 1.799999999999474 0.0
9.799999999999999 2.0 0.0
9.6 2.0 0.0
9.399999999999999 2.0 0.0
9.2 2.0 0.0
8.999999999999998 2.0 0.0
8.799999999999999 2.0 0.0
8.599999999999998 2.0 0.0
8.399999999999999 2.0 0.0
8.2 2.0 0.0
7.999999999999998 2.0 0.0
7.799999999999999 2.0 0.0
7.599999999999999 2.0 0.0
7.399999999999999 2.0 0.0
7.199999999999999 2.0 0.0
7.0 2.0 0.0
6.799999999999999 2.0 0.0
6.6 2.0 0.0
6.399999999999999 2.0 0.0
6.199999999999999 2.0 0.0
5.999999999999999 2.0 0.0
5.8 2.0 0.0
5.6 2.0 0.0
5.399999999999999 2.0 0.0
5.199999999999999 2.0 0.0
4.8 2.0 0.0
4.6 2.0 0.0
4.399999999999999 2.0 0.0
4.199999999999998 2.0 0.0
3.999999999999999 2.0 0.0
3.799999999999999 2.0 0.0
3.599999999999999 2.0 0.0
3.399999999999999 2.0 0.0
3.199999999999998 2.0 0.0
2.999999999999999 2.0 0.0
2.799999999999999 2.0 0.0
2.599999999999999 2.0 0.0
2.399999999999999 2.0 0.0
2.199999999999999 2.0 0.0
2.0 2.0 0.0
1.799999999999999 2.0 0.0
1.599999999999999 2.0 0.0
1.399999999999999 2.0 0.0
1.199999999999999 2.0 0.0
0.9999999999999991 2.0 0.0
0.7999999999999998 2.0 0.0
0.5999999999999996 2.0 0.0
0.3999999999999995 2.0 0.0
0.1999999999999993 2.0 0.0
0.0 1.799999999999167 0.0
0.0 1.6 0.0
0.0 1.400000000001387 0.0
0.0 1.200000000002774 0.0
0.0 1.000000000004117 0.0
0.0 0.8000000000033287 0.0
0.0 0.6000000000024965 0.0
0.0 0.4000000000016644 0.0
0.0 0.200000000000832 0.0
1.499207686858938 0.9671416246672391 0.0
2.690335006295381 0.9619521672166851 0.0
3.892537609238439 1.007271393615351 0.0
8.916602958236062 0.9848120741100651 0.0
7.714518201951718 1.024234589865042 0.0
6.514518201951581 1.024234589865268 0.0
5.299999999999998 1.000000000000349 0.0
0.7620577975594133 1.201991596673393 0.0
4.61755859746166 1.240410629378135 0.0
2.099999999996533 0.6749999999988996 0.0
3.289480163184942 0.6802242156869155 0.0
8.299999999999976 1.325000000000064 0.0
7.110519836808121 1.319775784312006 0.0
5.893184537067197 1.292851873188582 0.0
3.268568008578649 1.341967835735878 0.0
2.118368267083699 1.321829331075689 0.0
5.930896443153832 0.6493414313150682 0.0
7.106926174231782 0.6329785805444448 0.0
8.306926174233002 0.6329785805444098 0.0
4.427960725065653 0.6389803625370323 0.0
0.9828791719046732 0.6520555711814596 0.0
9.383333333333349 0.6166666666667164 0.0
9.383333333333326 1.383333333333367 0.0
4.974443803660211 0.5526668589022862 0.0
1.248084267804327 1.464555585366204 0.0
4.139486343919472 1.468449088519687 0.0
5.077806736162063 1.478342020848787 0.0
1.629462398503482 0.5098631373669138 0.0
2.579462070540726 0.5133714280880515 0.0
3.770778974032556 0.5099482598296803 0.0
8.764748922637567 1.526880805960684 0.0
7.820537929455645 1.486628571911716 0.0
6.632254923791462 1.492045881343967 0.0
2.796478414430566 1.477149214423874 0.0
6.403521585563812 0.5228507855762514 0.0
7.603521585564883 0.5228507855756581 0.0
8.783559188644787 0.5066440811355862 0.0
0.5060338924245764 0.5082251307884346 0.0
5.451633334958382 0.4799315318847731 0.0
1.683269995544083 1.547372422998862 0.0
0.448590368789599 1.551409631210402 0.0
5.545526974704655 1.582008455135239 0.0
3.666056976948354 1.56999765613834 0.0
0.4385739326402744 0.9352922270094057 0.0
9.58170539854767 0.9922137522194456 0.0
4.93200119575972 0.9247090920592975 0.0
6.20679636316332 1.642443126922768 0.0
7.418963044745086 1.587405313446662 0.0
2.98103695524982 0.412594686552066 0.0
2.420975602092416 1.592770352831584 0.0
7.97902439790374 0.4072296471687943 0.0
6.779024397902082 0.4072296471687297 0.0
1.130444757308209 0.9859238872709168 0.0
0.8901814758011342 1.60566856081121 0.0
4.263670373274499 0.9915754392410991 0.0
3.096698167273431 1.009056907826855 0.0
6.088506433998166 0.9857489435828969 0.0
1.902225037409936 1.003483800311746 0.0
7.288506433998439 0.9857489435828686 0.0
8.498964973312972 1.005823551167602 0.0
2.307571737417198 1.008136792450924 0.0
8.100397971125554 1.000138280273345 0.0
6.900397971125225 1.000138280273792 0.0
3.499307350770321 0.9996496628144824 0.0
5.703656022566558 0.9885479657552226 0.0
4.719420624357892 1.622286409566126 0.0
4.099803549896894 0.3600308081356619 0.0
1.286100671532495 0.3637431910670685 0.0
9.120549139677793 1.655065205594329 0.0
9.11726214008418 0.3400668903113251 0.0
4.642568097328033 0.3514924793220939 0.0
9.630437629189052 0.3309104953729904 0.0
9.674493769554315 1.668196579944218 0.0
1.936458797611609 0.3337070483410596 0.0
3.461817573918652 0.3447876019040473 0.0
8.440152788772068 1.649667667046397 0.0
6.973083089482548 1.643748677366674 0.0
3.126874515006838 1.659115470008545 0.0
6.070607878384977 0.3410183041038941 0.0
7.255014454789089 0.32792256737713 0.0
8.462493615948901 0.3368393217476116 0.0
9.236261261261264 0.9276047786917867 0.0
5.885444386845415 1.667751020273455 0.0
0.8062340689595878 0.3261579034781319 0.0
2.29463843780282 0.308358158429197 0.0
8.10536156219338 1.691641841570632 0.0
4.041916759198581 0.7211683801597477 0.0
1.324377365289917 0.710525897087282 0.0
9.023167917315867 1.292262965009952 0.0
2.044244009166302 1.693807225416931 0.0
0.7675765545556328 0.8969765944392112 0.0
2.86965991063896 0.7069213925303978 0.0
6.330340089355722 1.293078607468788 0.0
7.530340089355831 1.29307860746885 0.0
2.509347777214458 1.27231292939881 0.0
7.890652222779963 0.7276870706009825 0.0
6.690652222780154 0.7276870706013264 0.0
4.380959112578968 1.65866292149053 0.0
0.3278422400819535 1.233362752678148 0.0
5.754468991464942 0.3469215055361071 0.0
9.69195804401614 0.7000195364707393 0.0
9.691250997975434 1.303243780084337 0.0
5.54324561063747 1.237401556904767 0.0
9.044596057577811 0.6843248705785732 0.0
5.208929198448351 0.3519433027337513 0.0
3.708880196230617 1.249762029554333 0.0
1.713349558540635 1.234899745098077 0.0
4.586522821995393 0.9261740906803194 0.0
5.241145838821565 0.7007005766013242 0.0
1.434457446926135 1.701926055218157 0.0
0.2821921707428039 0.3393165318407161 0.0
3.42846431357046 1.714274134409306 0.0
5.26283485467567 1.710141275531951 0.0
3.966530105129177 1.718376080180638 0.0
4.891301048299285 1.259923533724591 0.0
0.2787500712946937 0.6906723798523376 0.0
1.822166578929051 0.7301892210727335 0.0
8.593276160688786 1.287322908694633 0.0
2.386017956680413 0.7288816957021155 0.0
3.576911792171353 0.7225526638483954 0.0
8.013982043315597 1.271118304297217 0.0
6.82303669320588 1.277631295759485 0.0
2.891837633696712 1.215141906356511 0.0
8.708162366297856 0.7848580936429009 0.0
7.496736072543097 0.7897651325976158 0.0
6.296736072542775 0.7897651325982009 0.0
5.523181420933933 0.7588744249744506 0.0
4.725538117155759 0.6529070682798582 0.0
2.736307197014292 0.273961667653487 0.0
7.663692802980817 1.726038332346062 0.0
6.446842959287713 1.783714797320288 0.0
1.126188383272983 1.743715177525389 0.0
2.64757240694847 1.787239829472812 0.0
6.546646507559373 0.2589894635657943 0.0
7.746646507561152 0.2589894635657218 0.0
4.079302268890254 1.221431431691139 0.0
4.433746883463333 0.2983726043497702 0.0
1.032697650548726 1.318076986199429 0.0
1.309492735411376 1.208980965369829 0.0
3.896105387998365 0.2579746081881307 0.0
9.378751775005455 1.725996478164223 0.0
9.3965279828929 0.2649862374471925 0.0
1.515757555362918 0.2603060454608533 0.0
4.959097093232828 1.726144293543605 0.0
4.912501341257775 0.2529154558175828 0.0
4.342421824442713 1.285376618065631 0.0
7.023506283123107 0.293611963231815 0.0
8.215829626877609 0.2682061590942965 0.0
5.28145265730745 1.291130016052329 0.0
8.693992162747364 1.744100892812201 0.0
0.6256567126095668 1.775064851453201 0.0
0.2724967459749605 1.756941612685287 0.0
8.90781713264278 0.2741674349222226 0.0
7.184202236567151 1.709454269177068 0.0
3.212962614055919 0.2641656831057426 0.0
0.6761590188374282 0.6746441670621973 0.0
1.020489328989316 0.2487299689497893 0.0
1.485017749467193 1.402133856149482 0.0
6.734223224917944 1.790518105434539 0.0
2.657549589911705 0.7636227781082678 0.0
6.542590471647475 1.237213715285722 0.0
7.742745187066703 1.235538225115726 0.0
0.5794341726414672 0.2480285055479751 0.0
1.842901067642841 1.760146518280044 0.0
3.84389577648662 0.7524680119172447 0.0
3.061589173628368 1.407936939342627 0.0
6.144447294584154 0.5911674363009913 0.0
7.344447294585433 0.5911674362995804 0.0
8.544447294586682 0.5911674362982269 0.0
5.491507940982565 0.1734458797927824 0.0
[...]
<PointData Vectors="fields">
<DataArray type="Float64" Name="U" NumberOfComponents="3" format="ascii">
0.0 0.0 0.0
0.0317023199844416 0.0 0.0
0.0027693171109990753 -0.005777451031259448 0.0
0.015737806601227394 -0.05070942032595533 0.0
0.029143283166697634 -0.005474548712906545 0.0
0.00034662067699015335 -0.006061015011557867 0.0
0.0010039723133687308 -0.009959194918186046 0.0
0.0015951292376754239 -0.013419559227251765 0.0
0.002090797249096931 -0.016462506898430918 0.0
0.002528612247938066 -0.01937065244646512 0.0
0.002955526128105153 -0.022166260352366986 0.0
0.0033895536565200003 -0.02485757764746333 0.0
0.003871210961077829 -0.02745898620926555 0.0
0.004372425360972429 -0.029970983276861776 0.0
0.004916419524631885 -0.03236430623040748 0.0
0.005489333934456237 -0.034636586097017474 0.0
0.006113565565907629 -0.036790153603914626 0.0
0.006747761994982372 -0.038804980145303695 0.0
0.007444198888115714 -0.040681760927908484 0.0
0.008134589798434403 -0.04241242811867337 0.0
0.008876686015455203 -0.043990444291669324 0.0
0.009616123143838648 -0.04540204877018537 0.0
0.010388773302970679 -0.046660260203399306 0.0
0.011162739600470001 -0.04772207515313622 0.0
0.011941746448394751 -0.048670879000725226 0.0
0.01274793614734261 -0.049426744490724386 0.0
0.013543024089979084 -0.05000601866015287 0.0
0.014360290504314574 -0.05042001418066616 0.0
0.015162817262067559 -0.050649929132098155 0.0
0.015997895929155598 -0.050714671483629785 0.0
0.016808488142999376 -0.05060523370379238 0.0
0.017616992600730824 -0.050316984050864016 0.0
0.018419895913613166 -0.049859498477484276 0.0
0.01921015719891376 -0.049227282933559144 0.0
0.01997606564287553 -0.0484340426228452 0.0
0.02075553246124009 -0.04748741578826071 0.0
0.02149096146606977 -0.04633424113214883 0.0
0.022226692435410672 -0.04507825460303758 0.0
0.022926787241895195 -0.04366354651933798 0.0
0.02362498991867977 -0.042076463509956204 0.0
0.02428315272790568 -0.04034965072496737 0.0
0.02491753355697696 -0.03849139379355366 0.0
0.025507322094321532 -0.03646887836677164 0.0
0.026084527119881844 -0.03436777151256911 0.0
0.02661702633034426 -0.03214079472969909 0.0
0.02712974339774159 -0.02979139620928431 0.0
0.027601135674017604 -0.02732903704292905 0.0
0.02805301663931839 -0.024780582791990698 0.0
0.028465764169012874 -0.022135933521130937 0.0
0.02888828639762223 -0.019390689981202136 0.0
0.029302648474969502 -0.0165485542571398 0.0
0.029763863096674337 -0.013547069034517788 0.0
0.0302740238832584 -0.010292415514075455 0.0
0.031066308714454646 -0.006428915769218346 0.0
0.026818970524150845 -0.002276886722116965 0.0
0.02365855395686816 -0.0035208849060258144 0.0
0.020781878430975825 -0.004314268001957724 0.0
0.01814238193378632 -0.004917045814083636 0.0
0.015580288118501064 -0.005296824785860131 0.0
0.013065789322996983 -0.005544919249803693 0.0
0.010553605743293339 -0.005695620340612639 0.0
0.008003350866150501 -0.005763193859685702 0.0
0.005407506297005917 -0.00577708610298177 0.0
0.002767475072147132 -0.008425286298901982 0.0
0.002774825830978999 -0.011107182304669278 0.0
0.0028243646894551707 -0.013829640160486684 0.0
0.00293776973313636 -0.016579559285964603 0.0
0.0031244594773221003 -0.01931804080806427 0.0
0.003378023785891154 -0.022009561753914917 0.0
0.0037007517652258453 -0.02466689536136879 0.0
0.004080234011121489 -0.027231564028211835 0.0
0.004518562278394034 -0.029702516670809684 0.0
0.0050201903791928055 -0.03207730967881926 0.0
0.00554625606163651 -0.03432962103337832 0.0
0.006137800732340443 -0.03646461697469452 0.0
0.006733770292237826 -0.03846878600105898 0.0
0.007383041909962422 -0.04033598835644927 0.0
0.008047820153401736 -0.04206700967758752 0.0
0.008736551998778253 -0.0436503075697754 0.0
0.009431797843957429 -0.045047499215910225 0.0
0.010165776146721806 -0.0463582501083407 0.0
0.010919261626033051 -0.04746983069291057 0.0
0.011672515005323224 -0.048426680475785994 0.0
0.01246368516906039 -0.04922873222156372 0.0
0.013284064699653056 -0.049855262766856374 0.0
0.014079251009616224 -0.050310558799235384 0.0
0.01491367784216947 -0.05059833973810286 0.0
0.016581624185327156 -0.05063273812687355 0.0
0.017388148499990017 -0.05040044775622227 0.0
0.018186628311923136 -0.049996863923783316 0.0
0.019003108796960884 -0.04943064619047354 0.0
0.0198120901287004 -0.04866860857398113 0.0
0.02061935946922566 -0.04774034404700478 0.0
0.021375449364792513 -0.04665396216295287 0.0
0.02214343367947424 -0.045398724700522794 0.0
0.02288980580707817 -0.04399009135429779 0.0
0.023628997037560974 -0.042416436635786106 0.0
0.024323099175077727 -0.04065120192040352 0.0
0.025010981089059258 -0.03879897154050056 0.0
0.025648061933958313 -0.036767186047543976 0.0
0.02624532631052767 -0.03460008184973812 0.0
0.026819927834803383 -0.03230398901093415 0.0
0.027337433764868295 -0.02988738026105348 0.0
0.02778770059167491 -0.027368783774266554 0.0
0.028199091911488252 -0.024742701317698408 0.0
0.028530231402917317 -0.022042241917144302 0.0
0.02879355305819501 -0.019275257144487322 0.0
0.028975309733059604 -0.016484299389748266 0.0
0.02908288720973813 -0.013680256468668097 0.0
0.02913521934812391 -0.010907346099392852 0.0
0.029147521055679252 -0.008170088993320345 0.0
0.026454184513174897 -0.005475996930515821 0.0
0.023806874701936116 -0.00546320627038043 0.0
0.02121058961402352 -0.005401449492880249 0.0
0.018642428826454765 -0.005257801928911585 0.0
0.016084376333882475 -0.00499200966028732 0.0
0.013476209398141903 -0.0046138418265188 0.0
0.010786148022253014 -0.004010835195641907 0.0
0.007880946897909226 -0.0031805136529844532 0.0
0.00443522209155717 -0.001794074460810815 0.0
0.015531477834456544 -0.026328663519180368 0.0
0.015548401215765407 -0.04002611119666232 0.0
0.015898554398926994 -0.048612690975247154 0.0
0.015853701069865465 -0.020620757514453074 0.0
0.015578800843823022 -0.03557901738655102 0.0
0.01569019179866364 -0.046036615171789336 0.0
0.01585002441511215 -0.05091233262954452 0.0
0.01862652239674742 -0.015981202136785062 0.0
0.016199985826614346 -0.05084800657502446 0.0
0.012511823590842165 -0.033778779035848354 0.0
0.013805596252305511 -0.04499828572800413 0.0
0.012155092989411453 -0.02870685239303712 0.0
0.01328981104828305 -0.041443070020753 0.0
0.014773161794802332 -0.04926675896098813 0.0
0.01811898176407481 -0.044846509396492255 0.0
0.019178903568907706 -0.03395726443741726 0.0
0.01717022392345476 -0.04910146240399346 0.0
0.018740470509514714 -0.04148022595266174 0.0
0.019911119816753853 -0.02868561688071284 0.0
0.015097882265299626 -0.050454172587961844 0.0
0.01157420046908654 -0.019208740595787196 0.0
0.020486915117314878 -0.013879911075129684 0.0
0.010802533349093408 -0.014052762723739993 0.0
0.01587060029740444 -0.051058642846065885 0.0
0.021601665575734532 -0.022837500441290324 0.0
0.0174203317453898 -0.04954145254859023 0.0
0.015638376417978876 -0.05101710438729487 0.0
0.010199253583126755 -0.028015835129775894 0.0
0.011512968638525661 -0.03887066978182815 0.0
0.013564710798869688 -0.04791087300304124 0.0
0.009402466024408196 -0.022612673291833665 0.0
0.010913482291808862 -0.03433063267355508 0.0
0.012693784231408923 -0.04514329987529393 0.0
0.019801015156992473 -0.04092594083935635 0.0
0.018488472463002656 -0.0466382163862037 0.0
0.020338381326952246 -0.036690925942483014 0.0
0.021781946492821766 -0.02248020814418661 0.0
0.009569445185655324 -0.011962552405572936 0.0
0.01686112460392447 -0.05053061961256704 0.0
0.022141668342651192 -0.028602054285613264 0.0
0.023149465316633287 -0.011558240887246335 0.0
0.014500977555933301 -0.050288116438232736 0.0
0.0188065267701971 -0.04731190492511578 0.0
0.015323826067838695 -0.011137305009000833 0.0
0.015608598153963997 -0.011072876023466684 0.0
0.015847977447322838 -0.051157150852135444 0.0
0.012712046407385257 -0.04767373496255059 0.0
0.010569160152418978 -0.03849962928044134 0.0
0.011399473381153102 -0.042503685340446545 0.0
0.021492398044085544 -0.037211252017979715 0.0
0.022057015913065765 -0.032553477256210384 0.0
0.019922939446364776 -0.044053714935046756 0.0
0.0158154238756613 -0.02127869891999615 0.0
0.02364917339540603 -0.017802053758687434 0.0
0.015845493694692927 -0.050058394280595636 0.0
0.015940262269390718 -0.04357829491458626 0.0
0.015902685685332842 -0.048441310270875435 0.0
0.01592155854172498 -0.031450632214992225 0.0
0.01594580912101176 -0.039870996351461394 0.0
0.0156848011908276 -0.026232907039600163 0.0
0.015952009691377333 -0.03612370679652536 0.0
0.015791960137458663 -0.03119516650446226 0.0
0.015826391596011437 -0.04324060846647047 0.0
0.015870140878089373 -0.04646016717102547 0.0
0.01587045304372103 -0.04997875406318004 0.0
0.016489976713360593 -0.05085118244678724 0.0
0.01366178870854655 -0.049330696905868054 0.0
0.007984164331982293 -0.023466576607690658 0.0
0.007524542015880576 -0.017721454729052673 0.0
0.0242562707694933 -0.017828306570459366 0.0
0.015021231484139462 -0.05074277507534773 0.0
0.0245544652848589 -0.009846023965539569 0.0
0.007135599908474607 -0.010087740368481604 0.0
0.00859292727311745 -0.03178180779185759 0.0
0.012003825016061634 -0.046057931957715945 0.0
0.008277911343173327 -0.026852191203237435 0.0
0.010959092551462999 -0.04250368119101422 0.0
0.020581754106396292 -0.043654359299948035 0.0
0.018708814191145926 -0.04835698368574426 0.0
0.02152882672457252 -0.04004353046477403 0.0
0.023562799190696614 -0.026678549435654578 0.0
0.01648326829170001 -0.016090542925661516 0.0
0.013406119719574757 -0.04914788499929776 0.0
0.006986182985433259 -0.016640620759722547 0.0
0.009013888382762719 -0.035847282230403475 0.0
0.008296015059734603 -0.030981942912825675 0.0
0.01485453348535706 -0.049239700371260894 0.0
0.012415748510087874 -0.0240019982226747 0.0
0.012076339148071992 -0.019108547921545073 0.0
0.02324424474753339 -0.03298750792004809 0.0
0.014776070743591182 -0.016042374536505827 0.0
0.01354895350928887 -0.04165177394579599 0.0
0.014293011685726036 -0.04713864687443157 0.0
0.01312362805844547 -0.03748301406191735 0.0
0.018353222873551678 -0.038209747369198126 0.0
0.0185914092719457 -0.033626527356348454 0.0
0.017618046858470963 -0.04480652617895599 0.0
0.017429719144173943 -0.0502085388587402 0.0
0.019112401973290786 -0.0097299002050292 0.0
0.017893783086007732 -0.04962952468222539 0.0
0.019329855499951042 -0.00915939425049199 0.0
0.011742361022366333 -0.009735391662650977 0.0
0.015302367166226856 -0.05040985233381935 0.0
0.019599108659865687 -0.01885227398573546 0.0
0.016486363940529707 -0.0508535144250595 0.0
0.017102334425821368 -0.04766397088267926 0.0
0.01854351300802935 -0.029068062111619705 0.0
0.01575665266573511 -0.050820175683182756 0.0
0.016178980327675382 -0.05096187067585396 0.0
0.02432525774054735 -0.02531103753341578 0.0
0.007071470874411057 -0.008028353235360237 0.0
0.020206866962543354 -0.045789058825940726 0.0
0.015010689038167711 -0.0507526862666772 0.0
0.018750954002113494 -0.048747253598318926 0.0
0.015936382738549307 -0.051097673433308725 0.0
0.012132290793709458 -0.008469658973346901 0.0
0.012897536220234462 -0.030465612785216933 0.0
0.012381494938642526 -0.024946707369329822 0.0
0.013304229561604961 -0.036944690991277875 0.0
0.01437868460655938 -0.04690231123468371 0.0
0.012961034592183191 -0.03217686110049382 0.0
0.013895451082242783 -0.04381069222658952 0.0
0.01756326975422217 -0.04184365987583126 0.0
0.01829946981669281 -0.02349099515614607 0.0
0.017736036620981062 -0.037832068676758424 0.0
0.016920317592149327 -0.047330911893124265 0.0
0.016378815933042478 -0.05045827573791072 0.0
0.015527329662274516 -0.05096683817022114 0.0
0.009690960959795762 -0.040274548981904176 0.0
0.00876213847227928 -0.035947130139593504 0.0
0.011307320209810342 -0.0462120362397212 0.0
0.025231108093418324 -0.021095061655520053 0.0
0.022843047675591813 -0.03938725665826844 0.0
0.02037603694295664 -0.04561394279484465 0.0
0.02321706095255982 -0.035084319180315855 0.0
0.01664566087376616 -0.049386402942028854 0.0
0.014359555896204818 -0.050309429372549244 0.0
0.01994694648230686 -0.019852738198335412 0.0
0.018465563608875912 -0.023728278576079283 0.0
0.012698439023368589 -0.04840655467048089 0.0
0.0064646457869094835 -0.014137733275782636 0.0
0.025568649180185855 -0.013668057749841804 0.0
0.006986406810912364 -0.026499022370802736 0.0
0.015888634965279383 -0.050926804997701414 0.0
0.015697369124378555 -0.05090312173441461 0.0
0.01657651311609816 -0.050245885300342574 0.0
0.021304773958750342 -0.04206071168863832 0.0
0.023995471876684403 -0.029716936090267387 0.0
0.015483883016528586 -0.05090051779876621 0.0
0.006808569181428497 -0.02350744021704817 0.0
0.02601909143742827 -0.014058050658535055 0.0
0.025871343448536508 -0.009148298381258328 0.0
0.02495111715483871 -0.02076465746905913 0.0
0.009960132408535228 -0.0406508981092459 0.0
0.010839577416403873 -0.04426810273652254 0.0
0.011873933802250792 -0.014658805010974342 0.0
0.006096159849016678 -0.019746350280500462 0.0
0.020646297225576073 -0.026054542359702153 0.0
0.010452717787699614 -0.04426289952802956 0.0
0.013824916100278065 -0.03969507308767827 0.0
0.014400552586920533 -0.0458277240685473 0.0
0.013502809202872123 -0.03524674068039525 0.0
0.005642296865755371 -0.013120188401341345 0.0
0.024373176325050115 -0.03052923069318251 0.0
0.014778961540426796 -0.048350069293563495 0.0
0.01884856753014572 -0.04322759573706714 0.0
0.017714128727843545 -0.048092163136116736 0.0
0.019367559008797372 -0.03928700904257144 0.0
0.020562850956044886 -0.025654036438824072 0.0
0.017597564501916654 -0.05026872077491352 0.0
0.013301883171507229 -0.027179781892346103 0.0
0.021897934965348195 -0.04201290213654525 0.0
0.022822119393909365 -0.03811919899415489 0.0
0.01970673299689682 -0.04736207301663035 0.0
0.02195554520674695 -0.014816332736366207 0.0
0.013265224460625424 -0.014020002656481146 0.0
0.01370920758155223 -0.049772949616758426 0.0
0.01762837649330291 -0.048453090371556776 0.0
0.008482855106153386 -0.03803138243506662 0.0
0.007566599198501507 -0.03342039054968674 0.0
0.01726428101070523 -0.04977177705372302 0.0
0.012913274415086499 -0.022498800204647347 0.0
0.0214216100208885 -0.03201561702063491 0.0
0.018123812353623783 -0.012852468138544204 0.0
0.01832894165931058 -0.04955785581949887 0.0
0.022402227868279674 -0.007569448216256819 0.0
0.011879452359120881 -0.0471730229933604 0.0
0.006952289868758543 -0.02943731285983064 0.0
0.016736927018512128 -0.05062350204457991 0.0
0.012368932290862313 -0.048257406999507715 0.0
0.01808710028722748 -0.046567761674524456 0.0
0.023853527659035437 -0.035632281902590615 0.0
0.015821024595724195 -0.051118684818674265 0.0
0.016402608695354256 -0.008442030723727727 0.0
0.014715972495704787 -0.05000325480005556 0.0
0.015506880357265286 -0.04926598958724421 0.0
0.01473310966213825 -0.02874503580241981 0.0
0.015059867568337628 -0.04146251113144114 0.0
0.014909155816198992 -0.03379431678753027 0.0
0.015242443981979175 -0.04500337790408722 0.0
0.006026466477399792 -0.020134980012478102 0.0
0.01673947723728134 -0.008021664190974945 0.0
0.01974403552122751 -0.04757830990716721 0.0
0.01590936215941982 -0.05112375757563983 0.0
0.015302933623328154 -0.050885424342782454 0.0
0.012553082399148085 -0.011224980559407596 0.0
0.025610895649005212 -0.023536429231174678 0.0
0.020004461900102685 -0.031409090183053184 0.0
0.02007965382389444 -0.03600131814873675 0.0
0.01865498607089309 -0.04333795789401732 0.0
0.012476079975744061 -0.03958225707091266 0.0
0.013062101569132192 -0.043443967001178176 0.0
0.014139957636891564 -0.04835507559213347 0.0
0.007315326836194604 -0.03377411121929004 0.0
0.006598974413779189 -0.028732918784390812 0.0
0.013190704199167291 -0.046498415250094426 0.0
0.011384506746635404 -0.03651602643987798 0.0
0.012010467866427975 -0.04079861332617298 0.0
0.018303705345627565 -0.03155734512905298 0.0
0.01767903244150383 -0.013213792251525459 0.0
0.009428476106595274 -0.008306641302847056 0.0
0.021770510219099225 -0.007147918293413156 0.0
0.016633284923236694 -0.044971599198441355 0.0
0.017075147085624336 -0.033979836967048246 0.0
0.016302921554237088 -0.049176734840422814 0.0
0.016790765263074457 -0.04140606265243096 0.0
0.01712874868834297 -0.028537475388277833 0.0
0.02461124777356599 -0.02802590703184931 0.0
0.009570527940271622 -0.006469427791005086 0.0
0.020070709942572037 -0.03917632707309703 0.0
0.018782912154368128 -0.045455412937620426 0.0
0.02055356478808547 -0.03471354694824682 0.0
0.01496726227072322 -0.038148616587916594 0.0
0.015249561858197506 -0.044770227094013536 0.0
0.014799589150797104 -0.03348377820981962 0.0
0.017185640544242882 -0.05050453394887683 0.0
0.015390383004298971 -0.04767339545420231 0.0
0.011275952897893547 -0.03560585536905979 0.0
0.010774722329156994 -0.03069857162112842 0.0
0.018798832357542795 -0.04900191439668635 0.0
0.01623408489605383 -0.05096670762152272 0.0
0.013353106291657892 -0.021496965412577788 0.0
0.014847890609777365 -0.02373130979298778 0.0
0.014526678198525347 -0.018111670225793516 0.0
0.014143431539473547 -0.0491183577547542 0.0
0.014917057974048424 -0.029008600910948465 0.0
0.008425641531861755 -0.03761167970233882 0.0
0.009506781988427008 -0.04171339068580325 0.0
0.015930827752171355 -0.05101046987285375 0.0
0.023872854930181524 -0.03303453849944443 0.0
0.02103991035782227 -0.044317504233186665 0.0
0.012419972998822006 -0.044768551301131845 0.0
0.01165270017693407 -0.04113885433452756 0.0
0.010217190632927616 -0.024520728310866435 0.0
0.026502603733773812 -0.006553913567941219 0.0
0.005550049769665784 -0.008563692940785564 0.0
0.01679878305871217 -0.018150671330938027 0.0
0.016542315599986257 -0.04995868262124661 0.0
0.015583612845571415 -0.049452766650623946 0.0
0.015270050710653493 -0.049987737445939116 0.0
0.013967525728689386 -0.00826540445204082 0.0
0.014177146816011527 -0.0503078682389429 0.0
0.026163483359033835 -0.018195825935941833 0.0
0.015024215563737937 -0.02342396435307903 0.0
0.020925645887338966 -0.012406439382580115 0.0
0.014582769883429755 -0.049791767163242476 0.0
0.015363686087266685 -0.041904051624337524 0.0
0.015475533579168694 -0.04739926443286594 0.0
0.015186106999013205 -0.03792454486665975 0.0
0.010335805662168525 -0.021875789361253055 0.0
0.010559572339620382 -0.0304949040258314 0.0
0.010159337162484227 -0.025164973515617126 0.0
0.013294391729102208 -0.04686588915115154 0.0
0.01246886582789988 -0.043732686263465194 0.0
0.016099073066506233 -0.050586120506783266 0.0
0.012934053443258877 -0.049179460223048053 0.0
0.021965684982462243 -0.020441205364713208 0.0
0.022056763287580636 -0.028692204703185616 0.0
0.020221724268741907 -0.04144023045983439 0.0
0.015335972590237973 -0.04997210012793685 0.0
0.017841012473257305 -0.049164663377416526 0.0
0.0053142820500047955 -0.023952912591234398 0.0
0.009697573808675905 -0.019658201322549033 0.0
0.010176757606745515 -0.01690255034289858 0.0
0.018336471857213637 -0.025844337776460363 0.0
0.017465745793497873 -0.04332238583129538 0.0
0.01776859470343187 -0.03951964742599416 0.0
0.016852199487781227 -0.048228811731462005 0.0
0.019475689628997865 -0.04512784944909545 0.0
0.01449002429890016 -0.04349446207324104 0.0
0.015016989096480826 -0.04837772480393701 0.0
0.014180609499072957 -0.039682413515161045 0.0
0.026024573541761117 -0.011525959492055952 0.0
0.0157612973239619 -0.050555240293412865 0.0
0.01841555892465971 -0.040174176687651934 0.0
0.018594830568171412 -0.03615288744233182 0.0
0.017495777086929686 -0.04635696572935512 0.0
0.017022301526237068 -0.0463379903473571 0.0
0.011574564135905322 -0.04714026702479813 0.0
0.0162368049573655 -0.05097429786155387 0.0
0.017327474223036488 -0.043059453393796 0.0
0.017999658551143757 -0.03095120184647191 0.0
0.017921084788438266 -0.020861192438009588 0.0
0.02105119260654042 -0.04456462963750929 0.0
0.009867158953065372 -0.011476783838899364 0.0
0.021352480740019907 -0.010880670552946689 0.0
0.023371029867690622 -0.0377853760386143 0.0
0.00881072067371764 -0.019278138625565967 0.0
0.014796602887221323 -0.05050540847477762 0.0
0.021612497191895907 -0.016548312982215242 0.0
0.021122415049738278 -0.01713775225100512 0.0