<VTKFile type="UnstructuredGrid"  version="0.1">
<UnstructuredGrid>
<Piece NumberOfPoints="713" NumberOfCells="1304">
<Points>
<DataArray type="Float64" NumberOfComponents="3" format="ascii">
0.0 0.0 0.0
10.0 0.0 0.0
10.0 2.0 0.0
5.0 2.0 0.0
0.0 2.0 0.0
0.199999999999856 0.0 0.0
0.3999999999996677 0.0 0.0
0.5999999999994683 0.0 0.0
0.7999999999993286 0.0 0.0
0.9999999999991888 0.0 0.0
1.199999999999033 0.0 0.0
1.399999999998576 0.0 0.0
1.599999999997992 0.0 0.0
1.799999999997408 0.0 0.0
1.999999999996825 0.0 0.0
2.199999999996241 0.0 0.0
2.399999999995657 0.0 0.0
2.599999999995073 0.0 0.0
2.79999999999449 0.0 0.0
2.999999999993906 0.0 0.0
3.199999999993322 0.0 0.0
3.399999999992738 0.0 0.0
3.599999999992154 0.0 0.0
3.799999999991571 0.0 0.0
3.999999999991022 0.0 0.0
4.199999999991187 0.0 0.0
4.399999999991491 0.0 0.0
4.599999999991795 0.0 0.0
4.799999999992099 0.0 0.0
4.999999999992403 0.0 0.0
5.199999999992706 0.0 0.0
5.39999999999301 0.0 0.0
5.599999999993313 0.0 0.0
5.799999999993618 0.0 0.0
5.999999999993922 0.0 0.0
6.199999999994227 0.0 0.0
6.39999999999453 0.0 0.0
6.599999999994833 0.0 0.0
6.799999999995138 0.0 0.0
6.999999999995442 0.0 0.0
7.199999999995747 0.0 0.0
7.39999999999605 0.0 0.0
7.599999999996353 0.0 0.0
7.799999999996658 0.0 0.0
7.999999999996962 0.0 0.0
8.199999999997265 0.0 0.0
8.399999999997569 0.0 0.0
8.599999999997873 0.0 0.0
8.799999999998176 0.0 0.0
8.99999999999848 0.0 0.0
9.199999999998786 0.0 0.0
9.399999999999089 0.0 0.0
9.599999999999392 0.0 0.0
9.799999999999697 0.0 0.0
10.0 0.1999999999996293 0.0
10.0 0.3999999999991157 0.0
10.0 0.5999999999985328 0.0
10.0 0.7999999999979498 0.0
10.0 0.9999999999973885 0.0
10.0 1.199999999997894 0.0
10.0 1.39999999999842 0.0
10.0 1.599999999998947 0.0
10.0 1.799999999999474 0.0
9.799999999999999 2.0 0.0
9.6 2.0 0.0
9.399999999999999 2.0 0.0
9.2 2.0 0.0
8.999999999999998 2.0 0.0
8.799999999999999 2.0 0.0
8.599999999999998 2.0 0.0
8.399999999999999 2.0 0.0
8.2 2.0 0.0
7.999999999999998 2.0 0.0
7.799999999999999 2.0 0.0
7.599999999999999 2.0 0.0
7.399999999999999 2.0 0.0
7.199999999999999 2.0 0.0
7.0 2.0 0.0
6.799999999999999 2.0 0.0
6.6 2.0 0.0
6.399999999999999 2.0 0.0
6.199999999999999 2.0 0.0
5.999999999999999 2.0 0.0
5.8 2.0 0.0
5.6 2.0 0.0
5.399999999999999 2.0 0.0
5.199999999999999 2.0 0.0
4.8 2.0 0.0
4.6 2.0 0.0
4.399999999999999 2.0 0.0
4.199999999999998 2.0 0.0
3.999999999999999 2.0 0.0
3.799999999999999 2.0 0.0
3.599999999999999 2.0 0.0
3.399999999999999 2.0 0.0
3.199999999999998 2.0 0.0
2.999999999999999 2.0 0.0
2.799999999999999 2.0 0.0
2.599999999999999 2.0 0.0
2.399999999999999 2.0 0.0
2.199999999999999 2.0 0.0
2.0 2.0 0.0
1.799999999999999 2.0 0.0
1.599999999999999 2.0 0.0
1.399999999999999 2.0 0.0
1.199999999999999 2.0 0.0
0.9999999999999991 2.0 0.0
0.7999999999999998 2.0 0.0
0.5999999999999996 2.0 0.0
0.3999999999999995 2.0 0.0
0.1999999999999993 2.0 0.0
0.0 1.799999999999167 0.0
0.0 1.6 0.0
0.0 1.400000000001387 0.0
0.0 1.200000000002774 0.0
0.0 1.000000000004117 0.0
0.0 0.8000000000033287 0.0
0.0 0.6000000000024965 0.0
0.0 0.4000000000016644 0.0
0.0 0.200000000000832 0.0
1.499207686858938 0.9671416246672391 0.0
2.690335006295381 0.9619521672166851 0.0
3.892537609238439 1.007271393615351 0.0
8.916602958236062 0.9848120741100651 0.0
7.714518201951718 1.024234589865042 0.0
6.514518201951581 1.024234589865268 0.0
5.299999999999998 1.000000000000349 0.0
0.7620577975594133 1.201991596673393 0.0
4.61755859746166 1.240410629378135 0.0
2.099999999996533 0.6749999999988996 0.0
3.289480163184942 0.6802242156869155 0.0
8.299999999999976 1.325000000000064 0.0
7.110519836808121 1.319775784312006 0.0
5.893184537067197 1.292851873188582 0.0
3.268568008578649 1.341967835735878 0.0
2.118368267083699 1.321829331075689 0.0
5.930896443153832 0.6493414313150682 0.0
7.106926174231782 0.6329785805444448 0.0
8.306926174233002 0.6329785805444098 0.0
4.427960725065653 0.6389803625370323 0.0
0.9828791719046732 0.6520555711814596 0.0
9.383333333333349 0.6166666666667164 0.0
9.383333333333326 1.383333333333367 0.0
4.974443803660211 0.5526668589022862 0.0
1.248084267804327 1.464555585366204 0.0
4.139486343919472 1.468449088519687 0.0
5.077806736162063 1.478342020848787 0.0
1.629462398503482 0.5098631373669138 0.0
2.579462070540726 0.5133714280880515 0.0
3.770778974032556 0.5099482598296803 0.0
8.764748922637567 1.526880805960684 0.0
7.820537929455645 1.486628571911716 0.0
6.632254923791462 1.492045881343967 0.0
2.796478414430566 1.477149214423874 0.0
6.403521585563812 0.5228507855762514 0.0
7.603521585564883 0.5228507855756581 0.0
8.783559188644787 0.5066440811355862 0.0
0.5060338924245764 0.5082251307884346 0.0
5.451633334958382 0.4799315318847731 0.0
1.683269995544083 1.547372422998862 0.0
0.448590368789599 1.551409631210402 0.0
5.545526974704655 1.582008455135239 0.0
3.666056976948354 1.56999765613834 0.0
0.4385739326402744 0.9352922270094057 0.0
9.58170539854767 0.9922137522194456 0.0
4.93200119575972 0.9247090920592975 0.0
6.20679636316332 1.642443126922768 0.0
7.418963044745086 1.587405313446662 0.0
2.98103695524982 0.412594686552066 0.0
2.420975602092416 1.592770352831584 0.0
7.97902439790374 0.4072296471687943 0.0
6.779024397902082 0.4072296471687297 0.0
1.130444757308209 0.9859238872709168 0.0
0.8901814758011342 1.60566856081121 0.0
4.263670373274499 0.9915754392410991 0.0
3.096698167273431 1.009056907826855 0.0
6.088506433998166 0.9857489435828969 0.0
1.902225037409936 1.003483800311746 0.0
7.288506433998439 0.9857489435828686 0.0
8.498964973312972 1.005823551167602 0.0
2.307571737417198 1.008136792450924 0.0
8.100397971125554 1.000138280273345 0.0
6.900397971125225 1.000138280273792 0.0
3.499307350770321 0.9996496628144824 0.0
5.703656022566558 0.9885479657552226 0.0
4.719420624357892 1.622286409566126 0.0
4.099803549896894 0.3600308081356619 0.0
1.286100671532495 0.3637431910670685 0.0
9.120549139677793 1.655065205594329 0.0
9.11726214008418 0.3400668903113251 0.0
4.642568097328033 0.3514924793220939 0.0
9.630437629189052 0.3309104953729904 0.0
9.674493769554315 1.668196579944218 0.0
1.936458797611609 0.3337070483410596 0.0
3.461817573918652 0.3447876019040473 0.0
8.440152788772068 1.649667667046397 0.0
6.973083089482548 1.643748677366674 0.0
3.126874515006838 1.659115470008545 0.0
6.070607878384977 0.3410183041038941 0.0
7.255014454789089 0.32792256737713 0.0
8.462493615948901 0.3368393217476116 0.0
9.236261261261264 0.9276047786917867 0.0
5.885444386845415 1.667751020273455 0.0
0.8062340689595878 0.3261579034781319 0.0
2.29463843780282 0.308358158429197 0.0
8.10536156219338 1.691641841570632 0.0
4.041916759198581 0.7211683801597477 0.0
1.324377365289917 0.710525897087282 0.0
9.023167917315867 1.292262965009952 0.0
2.044244009166302 1.693807225416931 0.0
0.7675765545556328 0.8969765944392112 0.0
2.86965991063896 0.7069213925303978 0.0
6.330340089355722 1.293078607468788 0.0
7.530340089355831 1.29307860746885 0.0
2.509347777214458 1.27231292939881 0.0
7.890652222779963 0.7276870706009825 0.0
6.690652222780154 0.7276870706013264 0.0
4.380959112578968 1.65866292149053 0.0
0.3278422400819535 1.233362752678148 0.0
5.754468991464942 0.3469215055361071 0.0
9.69195804401614 0.7000195364707393 0.0
9.691250997975434 1.303243780084337 0.0
5.54324561063747 1.237401556904767 0.0
9.044596057577811 0.6843248705785732 0.0
5.208929198448351 0.3519433027337513 0.0
3.708880196230617 1.249762029554333 0.0
1.713349558540635 1.234899745098077 0.0
4.586522821995393 0.9261740906803194 0.0
5.241145838821565 0.7007005766013242 0.0
1.434457446926135 1.701926055218157 0.0
0.2821921707428039 0.3393165318407161 0.0
3.42846431357046 1.714274134409306 0.0
5.26283485467567 1.710141275531951 0.0
3.966530105129177 1.718376080180638 0.0
4.891301048299285 1.259923533724591 0.0
0.2787500712946937 0.6906723798523376 0.0
1.822166578929051 0.7301892210727335 0.0
8.593276160688786 1.287322908694633 0.0
2.386017956680413 0.7288816957021155 0.0
3.576911792171353 0.7225526638483954 0.0
8.013982043315597 1.271118304297217 0.0
6.82303669320588 1.277631295759485 0.0
2.891837633696712 1.215141906356511 0.0
8.708162366297856 0.7848580936429009 0.0
7.496736072543097 0.7897651325976158 0.0
6.296736072542775 0.7897651325982009 0.0
5.523181420933933 0.7588744249744506 0.0
4.725538117155759 0.6529070682798582 0.0
2.736307197014292 0.273961667653487 0.0
7.663692802980817 1.726038332346062 0.0
6.446842959287713 1.783714797320288 0.0
1.126188383272983 1.743715177525389 0.0
2.64757240694847 1.787239829472812 0.0
6.546646507559373 0.2589894635657943 0.0
7.746646507561152 0.2589894635657218 0.0
4.079302268890254 1.221431431691139 0.0
4.433746883463333 0.2983726043497702 0.0
1.032697650548726 1.318076986199429 0.0
1.309492735411376 1.208980965369829 0.0
3.896105387998365 0.2579746081881307 0.0
9.378751775005455 1.725996478164223 0.0
9.3965279828929 0.2649862374471925 0.0
1.515757555362918 0.2603060454608533 0.0
4.959097093232828 1.726144293543605 0.0
4.912501341257775 0.2529154558175828 0.0
4.342421824442713 1.285376618065631 0.0
7.023506283123107 0.293611963231815 0.0
8.215829626877609 0.2682061590942965 0.0
5.28145265730745 1.291130016052329 0.0
8.693992162747364 1.744100892812201 0.0
0.6256567126095668 1.775064851453201 0.0
0.2724967459749605 1.756941612685287 0.0
8.90781713264278 0.2741674349222226 0.0
7.184202236567151 1.709454269177068 0.0
3.212962614055919 0.2641656831057426 0.0
0.6761590188374282 0.6746441670621973 0.0
1.020489328989316 0.2487299689497893 0.0
1.485017749467193 1.402133856149482 0.0
6.734223224917944 1.790518105434539 0.0
2.657549589911705 0.7636227781082678 0.0
6.542590471647475 1.237213715285722 0.0
7.742745187066703 1.235538225115726 0.0
0.5794341726414672 0.2480285055479751 0.0
1.842901067642841 1.760146518280044 0.0
3.84389577648662 0.7524680119172447 0.0
3.061589173628368 1.407936939342627 0.0
6.144447294584154 0.5911674363009913 0.0
7.344447294585433 0.5911674362995804 0.0
8.544447294586682 0.5911674362982269 0.0
5.491507940982565 0.1734458797927824 0.0
[...]
<PointData Vectors="fields">
<DataArray type="Float64" Name="U" NumberOfComponents="3" format="ascii">
0.0 0.0 0.0
0.03168181104010385 0.0 0.0
0.0025834097258370173 -0.005814925047656608 0.0
0.015782690930268323 -0.05059411918807616 0.0
0.028777517456966276 -0.00545146962073296 0.0
0.00031944151276701305 -0.006001007845284288 0.0
0.0009710047164714678 -0.009866224519224961 0.0
0.0015586872997555901 -0.013280278268074437 0.0
0.0020527976619810406 -0.016284150714805285 0.0
0.0024858554071564417 -0.019149865085478012 0.0
0.002903731354950658 -0.021903190923385767 0.0
0.003324131451512668 -0.024553974202863437 0.0
0.0037853066489513224 -0.027115752868960702 0.0
0.004261600004702047 -0.02958970666374266 0.0
0.004775505038154762 -0.03194970678397751 0.0
0.005314411723230377 -0.034195181130166306 0.0
0.005901062239741928 -0.03632744022828617 0.0
0.006497603947452806 -0.0383295836949124 0.0
0.007153836535869066 -0.04020143657642833 0.0
0.007808149111981282 -0.041935793120841336 0.0
0.008515329920620655 -0.04352521414795556 0.0
0.009225950502978994 -0.044957033075476764 0.0
0.00997446366935358 -0.0462412715248939 0.0
0.01073067053092756 -0.047337061030112475 0.0
0.011496388225201676 -0.04832104292540434 0.0
0.012296180890493023 -0.049117815777333436 0.0
0.013089876623059203 -0.04974040777262865 0.0
0.013909573647706012 -0.05019963398988407 0.0
0.014718602170570926 -0.05047702893850014 0.0
0.015562572959559397 -0.05058857640487947 0.0
0.016385423136766226 -0.050525522424904816 0.0
0.017209639989850374 -0.050283788041962235 0.0
0.018031470907792235 -0.04987070166016472 0.0
0.018844250276136343 -0.049280145920178785 0.0
0.01963646298948031 -0.04852516938217015 0.0
0.020446497115861495 -0.04761127240234994 0.0
0.021214181784316662 -0.04648640413632911 0.0
0.021984817175021463 -0.045251676882596355 0.0
0.0227212892486736 -0.043852473031738115 0.0
0.02345559569164739 -0.04227436810610702 0.0
0.02414683298498578 -0.04055131090469524 0.0
0.02481080684451217 -0.038691444224676075 0.0
0.025423694666011826 -0.03666468332537494 0.0
0.02602056978669317 -0.03455592195137283 0.0
0.026569010352316836 -0.03231905613185245 0.0
0.02709428279985099 -0.029958171694957802 0.0
0.027575736122996797 -0.027483538819934233 0.0
0.02803538385935684 -0.024921267640914097 0.0
0.028454863748332532 -0.022262500973585175 0.0
0.028882750368144573 -0.019503007072625585 0.0
0.029302426483365642 -0.016644942918707592 0.0
0.029769056297117746 -0.01362784253812558 0.0
0.030287838828944043 -0.010355922550754277 0.0
0.03108830600664402 -0.006460370900707421 0.0
0.026770653802441775 -0.0022924301839217292 0.0
0.023586211760716635 -0.003553930293756703 0.0
0.020697385468593687 -0.004354297178836915 0.0
0.018042426605716897 -0.004957592159138157 0.0
0.015466721153109946 -0.00533703696992447 0.0
0.01293716014740447 -0.005584398384093728 0.0
0.010409893090514249 -0.005733729416943759 0.0
0.007845403591495324 -0.005800735707969259 0.0
0.005235433890389686 -0.0058147399593827835 0.0
0.0025815024921836778 -0.008476778970444814 0.0
0.0025891512946267163 -0.01117288661549065 0.0
0.0026390464880816575 -0.01391032782380022 0.0
0.0027535470722011997 -0.01667559436847425 0.0
0.002942758187659666 -0.019430147527581952 0.0
0.003199389228376782 -0.02213845541631532 0.0
0.003527161615699254 -0.024810820838300232 0.0
0.003911797115788382 -0.027390089654751242 0.0
0.004354545959704307 -0.029874900598597 0.0
0.004860860985426546 -0.03226098798555486 0.0
0.0053927197468915545 -0.034523591946001894 0.0
0.005993145773740949 -0.03666656296276291 0.0
0.006603174367365301 -0.03867632584446904 0.0
0.007272437629423204 -0.04054528280054733 0.0
0.007962378418468525 -0.04227379758906817 0.0
0.008680149442556571 -0.04384865156905717 0.0
0.009403073251045186 -0.0452317479891959 0.0
0.010165035110741853 -0.046521615823974995 0.0
0.01094271533856185 -0.04760579385689967 0.0
0.011713592842241147 -0.0485296627371463 0.0
0.012516084533939705 -0.04929391558405248 0.0
0.013341252301489652 -0.04987787649726597 0.0
0.014135958330346851 -0.050288916720811164 0.0
0.014965797341621836 -0.05053019685828515 0.0
0.016617101095225587 -0.050470398193238376 0.0
0.01741376043626515 -0.05019015438869079 0.0
0.018202452514989646 -0.04974070536246241 0.0
0.019007826727543607 -0.04912966512281489 0.0
0.019803523318042825 -0.04832656274630997 0.0
0.020593873722461555 -0.04736024516189336 0.0
0.02133144832587761 -0.04624003039118605 0.0
0.02207570194049344 -0.044957546103788444 0.0
0.022793514936036402 -0.04352694555548778 0.0
0.023499453479353956 -0.041939756875835336 0.0
0.02415682144442728 -0.04017350181669649 0.0
0.024806334149056197 -0.038322921314301636 0.0
0.025408553572239704 -0.036304698257344316 0.0
0.025973859487197517 -0.03415911731934907 0.0
0.02651984125155643 -0.031891748961309835 0.0
0.02701463460045484 -0.029508771824279897 0.0
0.027448294648883972 -0.027027577816477376 0.0
0.027846963503415152 -0.024442816660416904 0.0
0.028170428181906397 -0.021783609942894223 0.0
0.02842912545710339 -0.01905887198592433 0.0
0.028608797595938623 -0.0163083542339237 0.0
0.028716228841125502 -0.01354446356467626 0.0
0.028769048245687233 -0.010809615734320589 0.0
0.02878153997275264 -0.008109861096459524 0.0
0.02612573122863521 -0.005452808434698757 0.0
0.023515337582550776 -0.00543934760734556 0.0
0.020954645366536583 -0.0053771220652676175 0.0
0.01842185582559107 -0.00523411688551441 0.0
0.0158973551792046 -0.004970214948238664 0.0
0.013324531003509832 -0.004596174724941589 0.0
0.010670518898170374 -0.003998447393878278 0.0
0.007804605870816384 -0.0031717338990017202 0.0
0.00440505544509341 -0.0017928517157685224 0.0
0.015321733007182203 -0.025955232074281742 0.0
0.015323686476511314 -0.0394605383438494 0.0
0.01568207886236251 -0.04815917245373638 0.0
0.015765364999949686 -0.020709084150486487 0.0
0.015470406604139394 -0.035720542871743484 0.0
0.01555700940325222 -0.04614723641916747 0.0
0.01567218862698082 -0.05077870010963867 0.0
0.018386348291185427 -0.01579458505186551 0.0
0.01605689835564851 -0.050556153340089324 0.0
0.012302713206607188 -0.03328265313590438 0.0
0.013524082134598592 -0.04446096530469821 0.0
0.012034479880353706 -0.02883176363876005 0.0
0.013178345881968421 -0.04159974465206436 0.0
0.014681060062563516 -0.04927822089581108 0.0
0.017953363064898552 -0.04430972045176662 0.0
0.01895433953975718 -0.03346189834199137 0.0
0.016941415367719277 -0.04912003658749747 0.0
0.018607207556672882 -0.0416354612418198 0.0
0.01983992773073124 -0.028807972032349603 0.0
0.014798627314389986 -0.05012306877868201 0.0
0.011407361261819312 -0.018962439075029276 0.0
0.020437051785726176 -0.01394236463667779 0.0
0.01067199513528593 -0.014123530225392346 0.0
0.015567597177842313 -0.050862328417363226 0.0
0.02133241260768415 -0.022539555453767846 0.0
0.017312396592376884 -0.04915867967081581 0.0
0.01556746055217708 -0.050851094113828446 0.0
0.010033382980725012 -0.02762128173500069 0.0
0.011264426566669896 -0.03833081723299356 0.0
0.013233405120479406 -0.04745359408803691 0.0
0.009263837489784538 -0.02272167596091742 0.0
0.010784316603338269 -0.03448180592022969 0.0
0.012615493389223228 -0.045283401107049766 0.0
0.019620047622698776 -0.04037807700393227 0.0
0.018278205291278472 -0.04674423220145793 0.0
0.02024203872929974 -0.03684686952371524 0.0
0.02173307977542948 -0.022579828634080545 0.0
0.009429789516548213 -0.011829289914171807 0.0
0.01656465066126254 -0.050453520536438694 0.0
0.021877079425753627 -0.028206126369820717 0.0
0.022861780920203387 -0.011446292564470436 0.0
0.014468192450846058 -0.05024229851050023 0.0
0.018698806460484104 -0.04684813895713831 0.0
0.015123133927517851 -0.011024410242231195 0.0
0.015516565122075925 -0.01113140440189087 0.0
0.01563725334271559 -0.05093473665174919 0.0
0.012679653632044159 -0.04776923430194801 0.0
0.010446158214007174 -0.03866902763191789 0.0
0.011102633887998519 -0.04196732283743756 0.0
0.021278562221545633 -0.03669384794743933 0.0
0.021986818905954532 -0.032701531462049495 0.0
0.0197426964184521 -0.044205352421624655 0.0
0.015602700161877658 -0.020997815975583704 0.0
0.02335359013999132 -0.017594537118638454 0.0
0.015632238684965796 -0.04968113272358554 0.0
0.015718626787837475 -0.04301702200926926 0.0
0.01575037463130704 -0.048484281953367896 0.0
0.015707131275116866 -0.03098600744385053 0.0
0.01582963162629949 -0.04002164267078909 0.0
0.015590053200193911 -0.02634247902766531 0.0
0.01573447731575018 -0.03559049228993195 0.0
0.01569162008337669 -0.03132239606222774 0.0
0.01570058046184471 -0.04338393971280656 0.0
0.015647900979142464 -0.045939999142544034 0.0
0.015704728484372814 -0.04994057325096905 0.0
0.016437595875587876 -0.05061294647044186 0.0
0.013290933879885362 -0.04895024625966591 0.0
0.0078584703774474 -0.023155816088975257 0.0
0.00737055437480489 -0.017812915303986765 0.0
0.024227880847579295 -0.017910643756515437 0.0
0.01465559109902589 -0.05048449216913618 0.0
0.024532935821555846 -0.009891087642430262 0.0
0.006975421233279295 -0.010145917205210655 0.0
0.00841929474038247 -0.03133738283590116 0.0
0.011654796809084636 -0.04556778616705106 0.0
0.008133428260304883 -0.02698457052542446 0.0
0.010865431788920951 -0.04267523863710501 0.0
0.020445448771039407 -0.043134216664410904 0.0
0.01843538551457883 -0.048422444775858255 0.0
0.021402973916624015 -0.04021619508251003 0.0
0.02351704661576204 -0.02680477733036213 0.0
0.016402388455045932 -0.016161966672076613 0.0
0.01339072760127732 -0.04918612288670458 0.0
0.006879005362889323 -0.01643943390655976 0.0
0.008798195380228635 -0.03535233400921649 0.0
0.0081523613515498 -0.03113387810844838 0.0
0.014570548714231153 -0.04882075003176131 0.0
0.012236953477489505 -0.023671224446833023 0.0
0.0119580099374957 -0.019196228529648987 0.0
0.022987529090507733 -0.03253140555055577 0.0
0.01457454217912085 -0.015850445860769884 0.0
0.013291775839083671 -0.041089410768077546 0.0
0.014199966870779793 -0.0472309638993757 0.0
0.013004778544600597 -0.037634926640930697 0.0
0.01814554472448958 -0.03766230652121378 0.0
0.018501574037692252 -0.033765084023785884 0.0
0.01745824652917831 -0.04493769040003296 0.0
0.01737102728108394 -0.0498964534400451 0.0
0.018874086370773178 -0.00964250045268048 0.0
0.01759092511505715 -0.049632127959127186 0.0
0.019264516956970536 -0.009212015545057045 0.0
0.011615088357916293 -0.009790923742919316 0.0
0.015190385368698501 -0.0503393733671693 0.0
0.01954033930649677 -0.01893288508864849 0.0
0.0161460575708609 -0.050730524260453075 0.0
0.016935461672114748 -0.04718313902784829 0.0
0.01831135886173944 -0.028649740528309424 0.0
0.015535068136416638 -0.05051633653026663 0.0
0.015924122510744234 -0.050820320605150404 0.0
0.024027897488928404 -0.024980708126565658 0.0
0.006966079321391795 -0.00794828441314042 0.0
0.020105365796381888 -0.045306654884864614 0.0
0.01499952554038737 -0.0506550931575586 0.0
0.018686074961109325 -0.048354451010913665 0.0
0.01580731391478106 -0.05087241167645336 0.0
0.01197243104928686 -0.008393076489517133 0.0
0.012701077299856721 -0.030020551763658213 0.0
0.012264280563296998 -0.02505704179816912 0.0
0.013076843196491935 -0.03640766349361383 0.0
0.014097258263918637 -0.04639924171237142 0.0
0.012843155577975668 -0.03231202626738666 0.0
0.013790007794907796 -0.04395531658057868 0.0
0.017365461428365914 -0.04128004554407191 0.0
0.018226121516215988 -0.02359004145671189 0.0
0.017628190774098475 -0.03798168451060655 0.0
0.01674166234443495 -0.047411777884800395 0.0
0.016151192414268326 -0.050382191575761154 0.0
0.015240271849806261 -0.0507044857846536 0.0
0.009414971519392155 -0.03975302176254057 0.0
0.008624927440647835 -0.036120005482836975 0.0
0.011275937243928334 -0.04635558839336804 0.0
0.024916598248626888 -0.020837873694868857 0.0
0.022652897828902167 -0.038877530996659915 0.0
0.020151115742613374 -0.04575552217532581 0.0
0.023138658525023535 -0.03525175460879605 0.0
0.01648255819258919 -0.048975583289599355 0.0
0.013976162393905957 -0.05000914173782059 0.0
0.019693086478312784 -0.019602851124342888 0.0
0.018228549185167947 -0.023406965172882897 0.0
0.012309956335123511 -0.04799797952163867 0.0
0.006302250695382435 -0.01421498873520939 0.0
0.02555200672442962 -0.013731669849734394 0.0
0.006863738386821078 -0.026144966799447285 0.0
0.01586961521743819 -0.05075853094746966 0.0
0.015317774513204239 -0.05072059233603482 0.0
0.016435375460798953 -0.049894085271320804 0.0
0.02114949329061833 -0.042232156730597395 0.0
0.02394447061424487 -0.02986156373640198 0.0
0.01537655584738823 -0.050770343338045296 0.0
0.006653050719416535 -0.023629886821505148 0.0
0.025693687269407437 -0.013912523953122091 0.0
0.025549959861113785 -0.009073567397049382 0.0
0.024923372337134393 -0.020864982130204338 0.0
0.009850591711114501 -0.04083136442637696 0.0
0.010502339723096107 -0.043762641155207026 0.0
0.011704806850781362 -0.014486431273886243 0.0
0.006001094245660392 -0.01950167405579397 0.0
0.020391156253264337 -0.02569691964199336 0.0
0.010390878560443805 -0.04443438909342651 0.0
0.01358503836699577 -0.03913540329674825 0.0
0.01429596902390647 -0.045946120905885283 0.0
0.013385477360513192 -0.0353905808091363 0.0
0.005551752011668341 -0.012971145306506601 0.0
0.02409145650799669 -0.030117190898946697 0.0
0.014502012413974825 -0.0478916582929586 0.0
0.01868086124196024 -0.042680320064028776 0.0
0.017490485166188684 -0.04815433127842634 0.0
0.019251862011965673 -0.039444990264845166 0.0
0.02050129810828805 -0.025765368843967868 0.0
0.017236647474178725 -0.05023211858694038 0.0
0.013110357280615083 -0.026791287991008196 0.0
0.02174720590515142 -0.04149791423030576 0.0
0.022717592456010825 -0.03829705894377859 0.0
0.019438436984165957 -0.04746767210288979 0.0
0.021679743334446267 -0.014653259424464816 0.0
0.013155489940806633 -0.014088040451353014 0.0
0.013708701619543039 -0.049778500751089694 0.0
0.017499110704677967 -0.04801133381162817 0.0
0.008240294847391477 -0.03752856313830967 0.0
0.007420396266745706 -0.03358975963744155 0.0
0.01699964816212261 -0.049755828020791294 0.0
0.012801006485775222 -0.022598332368418746 0.0
0.02117532089512788 -0.031561479400096126 0.0
0.017891641487361176 -0.012715982910938454 0.0
0.01828671074085303 -0.04921982807405723 0.0
0.022127837531012363 -0.007515381763017109 0.0
0.011497121623052546 -0.046727026666661994 0.0
0.0068129801162476675 -0.02903973009104615 0.0
0.016649449444088363 -0.050329360429254524 0.0
0.012368967454945187 -0.04834564363498271 0.0
0.017941815484050248 -0.04606621203746879 0.0
0.023612684445897463 -0.0351527934665828 0.0
0.015654896334770796 -0.050931813965219966 0.0
0.016197779759449714 -0.008371662003009143 0.0
0.014644350820395356 -0.04997299731904966 0.0
0.015371148408727163 -0.049272318748802064 0.0
0.014629236743438875 -0.028864798219099156 0.0
0.014942708741631928 -0.04161340434326857 0.0
0.014695164541702239 -0.033292610254317116 0.0
0.015001556922211902 -0.04445833423730763 0.0
0.005863817680904142 -0.020242050893105747 0.0
0.01664756225071297 -0.00807252976941291 0.0
0.019677784648491133 -0.04715191486491137 0.0
0.015664262033837334 -0.05092754077107398 0.0
0.015240419334758216 -0.0507613423675841 0.0
0.012380386018407347 -0.011107565975306818 0.0
0.0255824949268567 -0.023655074227249072 0.0
0.01992767183332692 -0.0315433224264517 0.0
0.019861065343396513 -0.03548468057472783 0.0
0.018500529560703086 -0.043485949664433386 0.0
0.012359160476818816 -0.03974211613754968 0.0
0.012779560643120462 -0.042894563407175526 0.0
0.014066165580030475 -0.048411713871915445 0.0
0.007134014537253089 -0.03331710436461578 0.0
0.0064456278624718455 -0.02888405275251133 0.0
0.013121226155255687 -0.04661372953563854 0.0
0.011258978107275339 -0.03667290335519544 0.0
0.01174353473464511 -0.040249174547002727 0.0
0.018077469575152962 -0.03109548912876206 0.0
0.017607408734802304 -0.0132757932089251 0.0
0.009282039763136489 -0.008356679738235695 0.0
0.02171819392631467 -0.007192742230106743 0.0
0.016431228421091057 -0.04442706387653895 0.0
0.0168569796081196 -0.0334768160142792 0.0
0.016120965716808242 -0.04918702756646275 0.0
0.01666642533648134 -0.04155632319925922 0.0
0.017040573301758642 -0.02865549319787885 0.0
0.024317377989472165 -0.027653006920974547 0.0
0.009447043470731251 -0.006416427650231958 0.0
0.01987417367097284 -0.03863343835950848 0.0
0.018592010619281448 -0.045583461280478056 0.0
0.0204682075359666 -0.03486294383643421 0.0
0.014742764556672484 -0.037595380822506776 0.0
0.015127570109347024 -0.04490062469039401 0.0
0.014690514651286754 -0.03361933500954784 0.0
0.01716259174879495 -0.05025014521716927 0.0
0.015148079515191922 -0.047185410454434126 0.0
0.01105629995623972 -0.03509333202124229 0.0
0.010644795801689458 -0.03083596922196739 0.0
0.01848415414237631 -0.049048938027140665 0.0
0.016129834502438583 -0.05070910435008098 0.0
0.013165401929653023 -0.02121082990530957 0.0
0.014644701488696383 -0.023405360681463466 0.0
0.014428877313082608 -0.01819195496777422 0.0
0.013814439754348635 -0.048708546064315655 0.0
0.014710206996806731 -0.02858599124010319 0.0
0.008293010687092386 -0.037795629387017145 0.0
0.009204622273563213 -0.04120039010264512 0.0
0.01574851074099 -0.05073663881786243 0.0
0.023808351740419134 -0.03319630687445854 0.0
0.020839378228154567 -0.04447838664091803 0.0
0.01210614471326624 -0.04424353324366863 0.0
0.011543613954073549 -0.041305321860452306 0.0
0.010061639107979156 -0.02418496596264488 0.0
0.0264874376469884 -0.00658822960801674 0.0
0.005379870405251131 -0.008615327214052629 0.0
0.016576164307069666 -0.017925382930103956 0.0
0.016324184887332338 -0.04992396088973096 0.0
0.015348518515306157 -0.049038407079961155 0.0
0.015005563587502433 -0.04960930166164607 0.0
0.013854250025285631 -0.00831638478395813 0.0
0.014191060481906026 -0.05027407993791995 0.0
0.025835522029312826 -0.01798780355420824 0.0
0.014927469564859115 -0.023523786394725632 0.0
0.020663323046640713 -0.012279669633192302 0.0
0.014263601503646759 -0.04941494551435907 0.0
0.015133686898736013 -0.041335319764178334 0.0
0.015344270592296351 -0.047478386656688 0.0
0.015072705105529181 -0.038072647443645524 0.0
0.010182979931192205 -0.021585010210942737 0.0
0.010378915287614901 -0.030057344356178475 0.0
0.010026422719885578 -0.025282639701649456 0.0
0.012971854834421514 -0.04637587260763461 0.0
0.012377631192596165 -0.04388669600171814 0.0
0.015921337862671754 -0.05025385634548438 0.0
0.012519242691662944 -0.04882349464635729 0.0
0.02169044094493963 -0.020185330843934254 0.0
0.021997806474868552 -0.028822235748810862 0.0
0.020081235974538116 -0.04160355073894369 0.0
0.015213988163842384 -0.04993659691981413 0.0
0.017571186874961058 -0.04918741397894182 0.0
0.005223855891886555 -0.02364894930922708 0.0
0.009560313902383401 -0.019752931464169437 0.0
0.010042422879539775 -0.016984926762293847 0.0
0.01826013926898223 -0.02595267298610514 0.0
0.017274595928644828 -0.04276385067973526 0.0
0.017652557194393473 -0.0396721713011889 0.0
0.01666062514421775 -0.04828144551064393 0.0
0.019345366331660136 -0.04461432228024803 0.0
0.014237164402402453 -0.04293517598491889 0.0
0.014904893705631393 -0.048426452000423996 0.0
0.014064870080222771 -0.03983558903375812 0.0
0.025699803740201168 -0.011417370245283156 0.0
0.015601078353813677 -0.05046875075664387 0.0
0.01821823330165337 -0.03961508496848598 0.0
0.018496350032401195 -0.03629991146240109 0.0
0.017315934672718896 -0.046463010809663245 0.0
0.016839316516398084 -0.04581971471422126 0.0
0.011563117934317937 -0.04726645532342724 0.0
0.015933798787661532 -0.050825664090270964 0.0
0.017188762917795333 -0.04320465339480832 0.0
0.017912563619052014 -0.03107871956578316 0.0
0.017848181329021474 -0.020949387761657886 0.0
0.020940269837878382 -0.04407064745957696 0.0
0.009727660113065853 -0.011539525075680986 0.0
0.02130682920666843 -0.010933133165692353 0.0
0.023157353402711637 -0.03728644529888482 0.0
0.00867911586702089 -0.019033503074648867 0.0
0.014449785652820476 -0.05020303283586896 0.0
0.021569938148990126 -0.01662047019814622 0.0
0.02085563170268704 -0.01693575662371881 0.0
0.01652890441920863 -0.04817387861861465 0.0