<VTKFile type="UnstructuredGrid"  version="0.1">
<UnstructuredGrid>
<Piece NumberOfPoints="713" NumberOfCells="1304">
<Points>
<DataArray type="Float64" NumberOfComponents="3" format="ascii">
0.0 0.0 0.0
10.0 0.0 0.0
10.0 2.0 0.0
5.0 2.0 0.0
0.0 2.0 0.0
0.199999999999856 0.0 0.0
0.3999999999996677 0.0 0.0
0.5999999999994683 0.0 0.0
0.7999999999993286 0.0 0.0
0.9999999999991888 0.0 0.0
1.199999999999033 0.0 0.0
1.399999999998576 0.0 0.0
1.599999999997992 0.0 0.0
1.799999999997408 0.0 0.0
1.999999999996825 0.0 0.0
2.199999999996241 0.0 0.0
2.399999999995657 0.0 0.0
2.599999999995073 0.0 0.0
2.79999999999449 0.0 0.0
2.999999999993906 0.0 0.0
3.199999999993322 0.0 0.0
3.399999999992738 0.0 0.0
3.599999999992154 0.0 0.0
3.799999999991571 0.0 0.0
3.999999999991022 0.0 0.0
4.199999999991187 0.0 0.0
4.399999999991491 0.0 0.0
4.599999999991795 0.0 0.0
4.799999999992099 0.0 0.0
4.999999999992403 0.0 0.0
5.199999999992706 0.0 0.0
5.39999999999301 0.0 0.0
5.599999999993313 0.0 0.0
5.799999999993618 0.0 0.0
5.999999999993922 0.0 0.0
6.199999999994227 0.0 0.0
6.39999999999453 0.0 0.0
6.599999999994833 0.0 0.0
6.799999999995138 0.0 0.0
6.999999999995442 0.0 0.0
7.199999999995747 0.0 0.0
7.39999999999605 0.0 0.0
7.599999999996353 0.0 0.0
7.799999999996658 0.0 0.0
7.999999999996962 0.0 0.0
8.199999999997265 0.0 0.0
8.399999999997569 0.0 0.0
8.599999999997873 0.0 0.0
8.799999999998176 0.0 0.0
8.99999999999848 0.0 0.0
9.199999999998786 0.0 0.0
9.399999999999089 0.0 0.0
9.599999999999392 0.0 0.0
9.799999999999697 0.0 0.0
10.0 0.1999999999996293 0.0
10.0 0.3999999999991157 0.0
10.0 0.5999999999985328 0.0
10.0 0.7999999999979498 0.0
10.0 0.9999999999973885 0.0
10.0 1.199999999997894 0.0
10.0 1.39999999999842 0.0
10.0 1.599999999998947 0.0
10.0 1.799999999999474 0.0
9.799999999999999 2.0 0.0
9.6 2.0 0.0
9.399999999999999 2.0 0.0
9.2 2.0 0.0
8.999999999999998 2.0 0.0
8.799999999999999 2.0 0.0
8.599999999999998 2.0 0.0
8.399999999999999 2.0 0.0
8.2 2.0 0.0
7.999999999999998 2.0 0.0
7.799999999999999 2.0 0.0
7.599999999999999 2.0 0.0
7.399999999999999 2.0 0.0
7.199999999999999 2.0 0.0
7.0 2.0 0.0
6.799999999999999 2.0 0.0
6.6 2.0 0.0
6.399999999999999 2.0 0.0
6.199999999999999 2.0 0.0
5.999999999999999 2.0 0.0
5.8 2.0 0.0
5.6 2.0 0.0
5.399999999999999 2.0 0.0
5.199999999999999 2.0 0.0
4.8 2.0 0.0
4.6 2.0 0.0
4.399999999999999 2.0 0.0
4.199999999999998 2.0 0.0
3.999999999999999 2.0 0.0
3.799999999999999 2.0 0.0
3.599999999999999 2.0 0.0
3.399999999999999 2.0 0.0
3.199999999999998 2.0 0.0
2.999999999999999 2.0 0.0
2.799999999999999 2.0 0.0
2.599999999999999 2.0 0.0
2.399999999999999 2.0 0.0
2.199999999999999 2.0 0.0
2.0 2.0 0.0
1.799999999999999 2.0 0.0
1.599999999999999 2.0 0.0
1.399999999999999 2.0 0.0
1.199999999999999 2.0 0.0
0.9999999999999991 2.0 0.0
0.7999999999999998 2.0 0.0
0.5999999999999996 2.0 0.0
0.3999999999999995 2.0 0.0
0.1999999999999993 2.0 0.0
0.0 1.799999999999167 0.0
0.0 1.6 0.0
0.0 1.400000000001387 0.0
0.0 1.200000000002774 0.0
0.0 1.000000000004117 0.0
0.0 0.8000000000033287 0.0
0.0 0.6000000000024965 0.0
0.0 0.4000000000016644 0.0
0.0 0.200000000000832 0.0
1.499207686858938 0.9671416246672391 0.0
2.690335006295381 0.9619521672166851 0.0
3.892537609238439 1.007271393615351 0.0
8.916602958236062 0.9848120741100651 0.0
7.714518201951718 1.024234589865042 0.0
6.514518201951581 1.024234589865268 0.0
5.299999999999998 1.000000000000349 0.0
0.7620577975594133 1.201991596673393 0.0
4.61755859746166 1.240410629378135 0.0
2.099999999996533 0.6749999999988996 0.0
3.289480163184942 0.6802242156869155 0.0
8.299999999999976 1.325000000000064 0.0
7.110519836808121 1.319775784312006 0.0
5.893184537067197 1.292851873188582 0.0
3.268568008578649 1.341967835735878 0.0
2.118368267083699 1.321829331075689 0.0
5.930896443153832 0.6493414313150682 0.0
7.106926174231782 0.6329785805444448 0.0
8.306926174233002 0.6329785805444098 0.0
4.427960725065653 0.6389803625370323 0.0
0.9828791719046732 0.6520555711814596 0.0
9.383333333333349 0.6166666666667164 0.0
9.383333333333326 1.383333333333367 0.0
4.974443803660211 0.5526668589022862 0.0
1.248084267804327 1.464555585366204 0.0
4.139486343919472 1.468449088519687 0.0
5.077806736162063 1.478342020848787 0.0
1.629462398503482 0.5098631373669138 0.0
2.579462070540726 0.5133714280880515 0.0
3.770778974032556 0.5099482598296803 0.0
8.764748922637567 1.526880805960684 0.0
7.820537929455645 1.486628571911716 0.0
6.632254923791462 1.492045881343967 0.0
2.796478414430566 1.477149214423874 0.0
6.403521585563812 0.5228507855762514 0.0
7.603521585564883 0.5228507855756581 0.0
8.783559188644787 0.5066440811355862 0.0
0.5060338924245764 0.5082251307884346 0.0
5.451633334958382 0.4799315318847731 0.0
1.683269995544083 1.547372422998862 0.0
0.448590368789599 1.551409631210402 0.0
5.545526974704655 1.582008455135239 0.0
3.666056976948354 1.56999765613834 0.0
0.4385739326402744 0.9352922270094057 0.0
9.58170539854767 0.9922137522194456 0.0
4.93200119575972 0.9247090920592975 0.0
6.20679636316332 1.642443126922768 0.0
7.418963044745086 1.587405313446662 0.0
2.98103695524982 0.412594686552066 0.0
2.420975602092416 1.592770352831584 0.0
7.97902439790374 0.4072296471687943 0.0
6.779024397902082 0.4072296471687297 0.0
1.130444757308209 0.9859238872709168 0.0
0.8901814758011342 1.60566856081121 0.0
4.263670373274499 0.9915754392410991 0.0
3.096698167273431 1.009056907826855 0.0
6.088506433998166 0.9857489435828969 0.0
1.902225037409936 1.003483800311746 0.0
7.288506433998439 0.9857489435828686 0.0
8.498964973312972 1.005823551167602 0.0
2.307571737417198 1.008136792450924 0.0
8.100397971125554 1.000138280273345 0.0
6.900397971125225 1.000138280273792 0.0
3.499307350770321 0.9996496628144824 0.0
5.703656022566558 0.9885479657552226 0.0
4.719420624357892 1.622286409566126 0.0
4.099803549896894 0.3600308081356619 0.0
1.286100671532495 0.3637431910670685 0.0
9.120549139677793 1.655065205594329 0.0
9.11726214008418 0.3400668903113251 0.0
4.642568097328033 0.3514924793220939 0.0
9.630437629189052 0.3309104953729904 0.0
9.674493769554315 1.668196579944218 0.0
1.936458797611609 0.3337070483410596 0.0
3.461817573918652 0.3447876019040473 0.0
8.440152788772068 1.649667667046397 0.0
6.973083089482548 1.643748677366674 0.0
3.126874515006838 1.659115470008545 0.0
6.070607878384977 0.3410183041038941 0.0
7.255014454789089 0.32792256737713 0.0
8.462493615948901 0.3368393217476116 0.0
9.236261261261264 0.9276047786917867 0.0
5.885444386845415 1.667751020273455 0.0
0.8062340689595878 0.3261579034781319 0.0
2.29463843780282 0.308358158429197 0.0
8.10536156219338 1.691641841570632 0.0
4.041916759198581 0.7211683801597477 0.0
1.324377365289917 0.710525897087282 0.0
9.023167917315867 1.292262965009952 0.0
2.044244009166302 1.693807225416931 0.0
0.7675765545556328 0.8969765944392112 0.0
2.86965991063896 0.7069213925303978 0.0
6.330340089355722 1.293078607468788 0.0
7.530340089355831 1.29307860746885 0.0
2.509347777214458 1.27231292939881 0.0
7.890652222779963 0.7276870706009825 0.0
6.690652222780154 0.7276870706013264 0.0
4.380959112578968 1.65866292149053 0.0
0.3278422400819535 1.233362752678148 0.0
5.754468991464942 0.3469215055361071 0.0
9.69195804401614 0.7000195364707393 0.0
9.691250997975434 1.303243780084337 0.0
5.54324561063747 1.237401556904767 0.0
9.044596057577811 0.6843248705785732 0.0
5.208929198448351 0.3519433027337513 0.0
3.708880196230617 1.249762029554333 0.0
1.713349558540635 1.234899745098077 0.0
4.586522821995393 0.9261740906803194 0.0
5.241145838821565 0.7007005766013242 0.0
1.434457446926135 1.701926055218157 0.0
0.2821921707428039 0.3393165318407161 0.0
3.42846431357046 1.714274134409306 0.0
5.26283485467567 1.710141275531951 0.0
3.966530105129177 1.718376080180638 0.0
4.891301048299285 1.259923533724591 0.0
0.2787500712946937 0.6906723798523376 0.0
1.822166578929051 0.7301892210727335 0.0
8.593276160688786 1.287322908694633 0.0
2.386017956680413 0.7288816957021155 0.0
3.576911792171353 0.7225526638483954 0.0
8.013982043315597 1.271118304297217 0.0
6.82303669320588 1.277631295759485 0.0
2.891837633696712 1.215141906356511 0.0
8.708162366297856 0.7848580936429009 0.0
7.496736072543097 0.7897651325976158 0.0
6.296736072542775 0.7897651325982009 0.0
5.523181420933933 0.7588744249744506 0.0
4.725538117155759 0.6529070682798582 0.0
2.736307197014292 0.273961667653487 0.0
7.663692802980817 1.726038332346062 0.0
6.446842959287713 1.783714797320288 0.0
1.126188383272983 1.743715177525389 0.0
2.64757240694847 1.787239829472812 0.0
6.546646507559373 0.2589894635657943 0.0
7.746646507561152 0.2589894635657218 0.0
4.079302268890254 1.221431431691139 0.0
4.433746883463333 0.2983726043497702 0.0
1.032697650548726 1.318076986199429 0.0
1.309492735411376 1.208980965369829 0.0
3.896105387998365 0.2579746081881307 0.0
9.378751775005455 1.725996478164223 0.0
9.3965279828929 0.2649862374471925 0.0
1.515757555362918 0.2603060454608533 0.0
4.959097093232828 1.726144293543605 0.0
4.912501341257775 0.2529154558175828 0.0
4.342421824442713 1.285376618065631 0.0
7.023506283123107 0.293611963231815 0.0
8.215829626877609 0.2682061590942965 0.0
5.28145265730745 1.291130016052329 0.0
8.693992162747364 1.744100892812201 0.0
0.6256567126095668 1.775064851453201 0.0
0.2724967459749605 1.756941612685287 0.0
8.90781713264278 0.2741674349222226 0.0
7.184202236567151 1.709454269177068 0.0
3.212962614055919 0.2641656831057426 0.0
0.6761590188374282 0.6746441670621973 0.0
1.020489328989316 0.2487299689497893 0.0
1.485017749467193 1.402133856149482 0.0
6.734223224917944 1.790518105434539 0.0
2.657549589911705 0.7636227781082678 0.0
6.542590471647475 1.237213715285722 0.0
7.742745187066703 1.235538225115726 0.0
0.5794341726414672 0.2480285055479751 0.0
1.842901067642841 1.760146518280044 0.0
3.84389577648662 0.7524680119172447 0.0
3.061589173628368 1.407936939342627 0.0
6.144447294584154 0.5911674363009913 0.0
7.344447294585433 0.5911674362995804 0.0
8.544447294586682 0.5911674362982269 0.0
5.491507940982565 0.1734458797927824 0.0
[...]
<PointData Vectors="fields">
<DataArray type="Float64" Name="U" NumberOfComponents="3" format="ascii">
0.0 0.0 0.0
0.030421772525754804 0.0 0.0
0.002521007418010949 -0.005550137235473542 0.0
0.01515157848031112 -0.04864535525325894 0.0
0.027666693323008355 -0.005301463771689144 0.0
0.00033762164628519265 -0.005823573831215968 0.0
0.0009775660234453618 -0.0095388709878172 0.0
0.0015517525812767884 -0.012826839997095196 0.0
0.0020295392411643705 -0.01570999160834646 0.0
0.002447412992078992 -0.018462539199344128 0.0
0.0028498263346201525 -0.02110690430299265 0.0
0.003253321284916854 -0.023651755699453204 0.0
0.0036956472197150524 -0.026111800658838186 0.0
0.004151039156176506 -0.02848816293073305 0.0
0.00464133206995945 -0.03075515354240792 0.0
0.005155143295955409 -0.03291216584252731 0.0
0.005714261063592839 -0.034961739282597624 0.0
0.00628273590344484 -0.03688649128465176 0.0
0.006909628718401853 -0.03868703621233004 0.0
0.00753501912439639 -0.04035549333943919 0.0
0.008213384767593833 -0.04188534134171344 0.0
0.008897298415395327 -0.04326307372247333 0.0
0.009619530539183076 -0.044498622947169914 0.0
0.010351927286774493 -0.045550700718467285 0.0
0.01109401337093773 -0.04649611742879764 0.0
0.011869776763989232 -0.04725884485938632 0.0
0.012640855774809147 -0.04785242421639769 0.0
0.013438932660882094 -0.04828716594176371 0.0
0.014227527656468047 -0.04854428915340439 0.0
0.015051054954005178 -0.04864179001825281 0.0
0.015852844742167777 -0.04857024929287028 0.0
0.016653171174752304 -0.048324420199414915 0.0
0.01744751650336898 -0.047913072477064333 0.0
0.018228427567624574 -0.04733011471661712 0.0
0.018984037408783586 -0.04658865024394024 0.0
0.019751509465899836 -0.04569608803240069 0.0
0.020473299594091804 -0.04460035864145892 0.0
0.021194092962131778 -0.04340361121452669 0.0
0.021877874637751725 -0.04205107597021275 0.0
0.022557897380181494 -0.040530340937869315 0.0
0.02319810579994342 -0.038873382966693903 0.0
0.02381555816848538 -0.03708831118178376 0.0
0.024392057677208014 -0.0351430511374532 0.0
0.024958235372930963 -0.033120383215927356 0.0
0.02548335483606879 -0.03097483318916495 0.0
0.02599058601679438 -0.028709467618548735 0.0
0.02645659740257491 -0.026334109328901737 0.0
0.02690091298774822 -0.02387553466688771 0.0
0.027303967927023737 -0.02132466402296169 0.0
0.027713254120147517 -0.018677562910780342 0.0
0.02811258621559689 -0.015938450878976853 0.0
0.028555898538491654 -0.013047525570271116 0.0
0.02904626782005693 -0.009914598808972637 0.0
0.02980960265948219 -0.006195769265524555 0.0
0.025717552936317854 -0.0021996112182719675 0.0
0.022673316735079153 -0.003397768961881934 0.0
0.01990099971163316 -0.004158989202588245 0.0
0.017354941588224135 -0.004734577143704023 0.0
0.014882583818043037 -0.005095508405874089 0.0
0.012455251147396847 -0.005330366771609215 0.0
0.010030199753560818 -0.005472775682888004 0.0
0.007569299562037767 -0.005536656926891238 0.0
0.00506526526362528 -0.005549805562880067 0.0
0.0025192403011790577 -0.008103603061194627 0.0
0.002526248006921013 -0.0106896301886488 0.0
0.00257368354634735 -0.013314676046013885 0.0
0.002682687625046966 -0.015966580661767482 0.0
0.0028628927276426828 -0.018608200602235243 0.0
0.003108453317836335 -0.021205268260686562 0.0
0.0034216186970572283 -0.02376965090224647 0.0
0.0037897286556717266 -0.02624437892657218 0.0
0.004213976104310018 -0.028627969142678768 0.0
0.004698079213898844 -0.030917302458874477 0.0
0.005204031013675614 -0.0330870317003158 0.0
0.005772463099712527 -0.03514182675905815 0.0
0.006345604254965312 -0.03706927988906587 0.0
0.006972847972631975 -0.03886333331365202 0.0
0.007619397626559659 -0.040524842689507005 0.0
0.008294760765476576 -0.04204230436367745 0.0
0.008983756256502367 -0.043378398740370944 0.0
0.009714534641402222 -0.04462936717085232 0.0
0.010467241917861775 -0.04568503473912858 0.0
0.01121725027940856 -0.04658854176058395 0.0
0.011998007397922119 -0.04733950127337404 0.0
0.012798913510114873 -0.04791709379732399 0.0
0.013566584124605294 -0.04832678743506692 0.0
0.014366121553122122 -0.04857204210149188 0.0
0.015954224241358513 -0.048536371313678356 0.0
0.01672068000302809 -0.04827690247910254 0.0
0.0174807350068002 -0.047852262918942234 0.0
0.01826005215943853 -0.04727101583677522 0.0
0.01903411981106899 -0.04650198829439454 0.0
0.01980583180132907 -0.04557461989730206 0.0
0.020526378230150393 -0.04449798888956908 0.0
0.02125184613673014 -0.04326368389438868 0.0
0.021948816699491794 -0.04188717828347329 0.0
0.02262959040978903 -0.04035984315094212 0.0
0.023260438399731572 -0.038658818249686026 0.0
0.02388199144980688 -0.03688018867377275 0.0
0.024455247372711018 -0.03493980204632891 0.0
0.02499333070801724 -0.03287759957253836 0.0
0.025513346014990595 -0.03069902198350123 0.0
0.0259847155922015 -0.02841047724927473 0.0
0.026397986705419648 -0.026028053939513192 0.0
0.02677840680759141 -0.023545406520258272 0.0
0.027086937951038257 -0.020992024094291347 0.0
0.027334174539011477 -0.01837492466767068 0.0
0.02750586855011182 -0.015733330541713147 0.0
0.02760838753291814 -0.013077865541155817 0.0
0.027658517421389313 -0.01045040624501833 0.0
0.02767063716746877 -0.007856201090279558 0.0
0.025118205617821878 -0.005302726618884051 0.0
0.02260929857124227 -0.0052901283507063345 0.0
0.020148324913594928 -0.005230817397405625 0.0
0.017713581492045515 -0.0050936383364638006 0.0
0.015288367578108893 -0.004840008182722103 0.0
0.012816226472116728 -0.004478179344517509 0.0
0.010267519166351062 -0.0038987045209613646 0.0
0.007513815584097088 -0.003096234379789132 0.0
0.004238221511399112 -0.0017491158356753747 0.0
0.014762160695800063 -0.025036249404870047 0.0
0.014763149282666036 -0.03803223985871624 0.0
0.015103800141622065 -0.04642129608721183 0.0
0.015142794858148722 -0.019862967164791336 0.0
0.014862216626502138 -0.03428842473382947 0.0
0.014958223112286267 -0.04433265274067373 0.0
0.015093421613690285 -0.048886210290219535 0.0
0.017698051779352766 -0.01525670770520934 0.0
0.015452638830410077 -0.04870310510379025 0.0
0.011865060448974724 -0.03207992790810621 0.0
0.013030583823512222 -0.04284859389998032 0.0
0.011573681944807374 -0.027667041520677883 0.0
0.012654694497930493 -0.03992591151859315 0.0
0.014115254844035925 -0.04739266865966498 0.0
0.017290732851731248 -0.04270324828343265 0.0
0.01824922601698708 -0.032251486587098976 0.0
0.016335255383322755 -0.04723262156889702 0.0
0.017884219174945846 -0.03995988142894665 0.0
0.019042111372333605 -0.027646618239263364 0.0
0.014268797224166255 -0.0482902682403613 0.0
0.01101075053792871 -0.018309429790368866 0.0
0.019616352859329916 -0.013365767163583451 0.0
0.010270725395059544 -0.013529698440225548 0.0
0.015020708766177681 -0.04897293140850609 0.0
0.020525074751627057 -0.02174127693728505 0.0
0.016651979257374976 -0.047361902048413375 0.0
0.014971564166571315 -0.048948199813676214 0.0
0.009691102503848553 -0.02662998162693524 0.0
0.010863113276204683 -0.03693092767461842 0.0
0.01275583776536291 -0.045722453218440824 0.0
0.008919466799786772 -0.021786527560192497 0.0
0.010374921882807593 -0.03308604882668865 0.0
0.012095634240256413 -0.04347829906337642 0.0
0.01889563251424156 -0.03890360260721491 0.0
0.017616482030459762 -0.04489885921151861 0.0
0.019427242585107043 -0.035358498239799085 0.0
0.020858274664750147 -0.021656845089816204 0.0
0.009113492399052915 -0.011446420869991328 0.0
0.015992844599483764 -0.048543440534048535 0.0
0.02105085240570195 -0.027187869912237074 0.0
0.02198638478042682 -0.011067031346217952 0.0
0.013907927858927725 -0.04832527478957829 0.0
0.01799552493414249 -0.045135819055826566 0.0
0.01456655733448523 -0.010667061210335744 0.0
0.014911399245808792 -0.010661083743797761 0.0
0.015065438329337492 -0.04905840663179868 0.0
0.012159153224926436 -0.045888906953908765 0.0
0.010037542159582491 -0.037097137700704295 0.0
0.010703059059545725 -0.04042752619715259 0.0
0.02048629456924321 -0.035349015070924625 0.0
0.021092692175451264 -0.03137560563044557 0.0
0.019004760464468227 -0.04242730489130117 0.0
0.015031717200815484 -0.02026718321113951 0.0
0.022461694125691253 -0.01698009530238756 0.0
0.015056223868247261 -0.04787926591686341 0.0
0.015141553944162124 -0.04146262769506677 0.0
0.015157134334038395 -0.04661813413224161 0.0
0.015131780522811599 -0.029874859072345022 0.0
0.015208423692500302 -0.0384143985818893 0.0
0.014975601361423818 -0.025279669810986113 0.0
0.015158124550232086 -0.03430516526077055 0.0
0.015073368652932302 -0.0300672158045758 0.0
0.015089851850592419 -0.041651553619052505 0.0
0.015072154543328747 -0.04428407655660259 0.0
0.015120665858389257 -0.048051310111646844 0.0
0.015799411392435958 -0.048726389190687 0.0
0.012818551431880935 -0.04714710939958553 0.0
0.007606237257127022 -0.02233317520677002 0.0
0.00710702147162501 -0.01706742000618523 0.0
0.023248589330577524 -0.017170543064735616 0.0
0.014145236485380424 -0.04860806920096693 0.0
0.023537797004267086 -0.009483697615507656 0.0
0.006732195811017726 -0.009706808577188723 0.0
0.008140577482406328 -0.030193461128043313 0.0
0.01123386794184399 -0.04389254186797517 0.0
0.007836980474150301 -0.025877940846374986 0.0
0.01041535739274289 -0.040945542576547096 0.0
0.01969051756182362 -0.04154784536774467 0.0
0.01779820468984749 -0.046525552520853164 0.0
0.020558199531588682 -0.03858017314679709 0.0
0.02256592466306336 -0.025708426762182476 0.0
0.015753219710315763 -0.015494464275115302 0.0
0.012857436663800651 -0.0472751109545556 0.0
0.006666579663855302 -0.015879049102659623 0.0
0.00849934887489799 -0.034051984925612074 0.0
0.007855305932413383 -0.029860658694890865 0.0
0.014042596506587957 -0.04704968263152922 0.0
0.011805016670697473 -0.02283843135172599 0.0
0.011498923358845265 -0.018404701331553315 0.0
0.022121528161648554 -0.031338684410211655 0.0
0.014045970999009018 -0.015314448400122506 0.0
0.012808549514811984 -0.03959761493591354 0.0
0.013637437694759162 -0.045386103701201226 0.0
0.012498862234841139 -0.036118974844066794 0.0
0.017475159721589466 -0.03629573138043421 0.0
0.017759359020064102 -0.032410100458285 0.0
0.01680019665426868 -0.04315152469698715 0.0
0.01669596552354353 -0.048048021300852214 0.0
0.01815891272509283 -0.009333852877175522 0.0
0.0169927644968252 -0.04771629700229878 0.0
0.01850236025950574 -0.00882210091300001 0.0
0.011178623075168356 -0.009369362438327124 0.0
0.014615972429391439 -0.0484418861242452 0.0
0.018757008791422843 -0.01815702812431231 0.0
0.01559712620104827 -0.04881528061686629 0.0
0.01630513939643341 -0.04547857945412394 0.0
0.017629743182427934 -0.027624848271193627 0.0
0.014966506386234708 -0.04867141496661815 0.0
0.015356165816681366 -0.04892552669959697 0.0
0.02311253469115612 -0.024079696447823172 0.0
0.00674691540697788 -0.007706107436465073 0.0
0.019355969420865014 -0.04363661524893021 0.0
0.014414841270757817 -0.0487274332463213 0.0
0.017967729468768786 -0.0465689523206832 0.0
0.015211909675256142 -0.048992326563327096 0.0
0.01154288142570599 -0.008133806112467942 0.0
0.012248520940383511 -0.028943531804524796 0.0
0.011792284397063934 -0.02403861215159473 0.0
0.012605966487202528 -0.035088087800444284 0.0
0.013583004392797852 -0.044720211416199564 0.0
0.01234837200967017 -0.031012431296604717 0.0
0.013238943371553017 -0.0422003876795053 0.0
0.016726847457295337 -0.03978373273085184 0.0
0.017498921170631718 -0.022632552658681818 0.0
0.01692905889497735 -0.03645528012873207 0.0
0.016121877245956075 -0.045563029151568235 0.0
0.015569666447017388 -0.048485563305913235 0.0
0.014696606967698332 -0.04883923033534265 0.0
0.009084428001104866 -0.03828375932653001 0.0
0.008300082583037272 -0.03464240080470145 0.0
0.01079341633750617 -0.04449546622418087 0.0
0.02396318454264104 -0.020095105346976196 0.0
0.021811475430961343 -0.03743540886737628 0.0
0.019424245676692358 -0.043918035168043774 0.0
0.022196659306132776 -0.033812125407210084 0.0
0.015865016651183405 -0.04720047668167181 0.0
0.013486762649717357 -0.04815155711704648 0.0
0.018952152536194943 -0.01891966966803752 0.0
0.01754899774041642 -0.022581978083511256 0.0
0.011870889861738865 -0.046221572008187134 0.0
0.006084635629973962 -0.01361149932889406 0.0
0.024514540529324398 -0.01316284247821074 0.0
0.0066511579942067165 -0.02519925556149484 0.0
0.01524921435489367 -0.04884292700132829 0.0
0.014797089255950064 -0.048811088499636196 0.0
0.01581478081296811 -0.048074674649410495 0.0
0.02033608080519758 -0.04051621672524165 0.0
0.022970785923698868 -0.02863979881830893 0.0
0.014795483138425818 -0.048870701969758484 0.0
0.0064184395438927205 -0.0226504322197502 0.0
0.024705981350022863 -0.013435495823708026 0.0
0.024565864183284124 -0.008783244200929997 0.0
0.023916504870958512 -0.02000192239457431 0.0
0.00945063364501917 -0.03916553715550758 0.0
0.010124507443189707 -0.04214469446782192 0.0
0.011295866000386068 -0.014003498015182353 0.0
0.0058237914360972105 -0.018817218264826636 0.0
0.019623596291805007 -0.02478006087842585 0.0
0.009944186559269977 -0.04263189466127757 0.0
0.013092184228902426 -0.03771599658916978 0.0
0.013729151789244016 -0.04413432758841589 0.0
0.012866664078195412 -0.0339680740273164 0.0
0.0053915472982100695 -0.012543328615865419 0.0
0.023178543499191927 -0.02901315864335069 0.0
0.0139741029500077 -0.046158305797236496 0.0
0.017992324767457882 -0.0411271983935844 0.0
0.01686384605140603 -0.0462807492730125 0.0
0.018489762064533555 -0.03785350778665114 0.0
0.019677154998726895 -0.02472025371969342 0.0
0.016667425667265347 -0.04829423003166455 0.0
0.012641720152327991 -0.0258391949421906 0.0
0.020943682295103936 -0.039960549204270134 0.0
0.02180490325348071 -0.03673119995530345 0.0
0.01876257479324614 -0.045581726716112526 0.0
0.02085494970869395 -0.014153613003670368 0.0
0.01264813691355264 -0.013498621853950798 0.0
0.013167171456286965 -0.04785215215002998 0.0
0.01683914946280491 -0.04626732512738225 0.0
0.007959817283066144 -0.03613721019546581 0.0
0.007151139193332229 -0.032210349396930085 0.0
0.016404740138383184 -0.04785357194103689 0.0
0.012305522239301075 -0.02167580557079146 0.0
0.020380286062301998 -0.030415635192381142 0.0
0.017221249200202463 -0.012293432065075072 0.0
0.017574802241432548 -0.04738894110396389 0.0
0.021277942971540002 -0.007286314028640526 0.0
0.011085115590904304 -0.04499635587789112 0.0
0.006600789819976477 -0.027977798819231015 0.0
0.01600930037484248 -0.04847274625656504 0.0
0.011858594136174253 -0.04643662869603907 0.0
0.017274542973401693 -0.04439559569953224 0.0
0.022726764151309125 -0.03385163561293703 0.0
0.01507366175216176 -0.049045885524468646 0.0
0.015589800806604322 -0.008111713562815946 0.0
0.014081883837002858 -0.04807157728417579 0.0
0.014789409341828237 -0.04739216298727471 0.0
0.014056791675449825 -0.027704024655512888 0.0
0.014355952658388547 -0.039943857524015206 0.0
0.014160688912280214 -0.03209364603977629 0.0
0.014451144567510886 -0.0428527694083939 0.0
0.005662531427291968 -0.019396167913301607 0.0
0.01600287205336045 -0.007724194535600942 0.0
0.018930339171505543 -0.04540549148399268 0.0
0.01510034638908243 -0.04904385133409593 0.0
0.014657049966776754 -0.04885176049181294 0.0
0.011940475889257375 -0.01074878288266294 0.0
0.024548780675074874 -0.02267569900013534 0.0
0.019123599369714795 -0.03027338343005021 0.0
0.01912189438695298 -0.03419384862406727 0.0
0.017796641877331917 -0.041742509605646266 0.0
0.011872765711906935 -0.03813744012072072 0.0
0.012314984946030642 -0.041334130012098146 0.0
0.013511774833355871 -0.04653756566303018 0.0
0.006904330579734753 -0.03208594188420272 0.0
0.006219484799854546 -0.027692408903687193 0.0
0.012586060791931211 -0.04477441637574048 0.0
0.010825775471958506 -0.03518900423472897 0.0
0.011321048781734167 -0.03877979607148244 0.0
0.01740622986246154 -0.029977601387815335 0.0
0.016908641439716293 -0.012723544097700698 0.0
0.008944800614676805 -0.00799048671966602 0.0
0.02085563020848633 -0.006888146594313676 0.0
0.01582641310478662 -0.04282289113374139 0.0
0.01623560191924091 -0.03227032644439851 0.0
0.015525647212423688 -0.04730695847261142 0.0
0.01601674879626673 -0.039889052068294406 0.0
0.01636363537929613 -0.027503877586804858 0.0
0.023392615085364107 -0.026645755029919966 0.0
0.009116437031616348 -0.0062287958751037886 0.0
0.019138575735494805 -0.03722316351721318 0.0
0.017907503457599325 -0.043769944115717385 0.0
0.019639901888617448 -0.033456366942551524 0.0
0.014205345185329454 -0.03623509024006569 0.0
0.0145370817993076 -0.04312020805750949 0.0
0.014116081617628803 -0.03227175333044534 0.0
0.016488201253155865 -0.048365937032770985 0.0
0.014592348344511813 -0.04548400351967104 0.0
0.010667571628509776 -0.03381645548585994 0.0
0.010243724806108898 -0.029587529193683043 0.0
0.017862436465238822 -0.04712773236272128 0.0
0.015515155687554282 -0.04883728899896658 0.0
0.01269574132713514 -0.020472716628731704 0.0
0.01411326332353883 -0.022583627176321328 0.0
0.013863935631219291 -0.017442876078182654 0.0
0.013318354179650941 -0.04693009893637296 0.0
0.0141756913292573 -0.02756648638377637 0.0
0.00797381645975174 -0.03624415557412736 0.0
0.008879494010753637 -0.03967087642389348 0.0
0.015165193331222893 -0.04887718579199365 0.0
0.022836766434301617 -0.03183794193908705 0.0
0.020069413733748216 -0.042678522502117816 0.0
0.011667206808183521 -0.04262706800696346 0.0
0.01107951442833685 -0.0396341913382578 0.0
0.009719269612941358 -0.02332830283995234 0.0
0.025414026578868702 -0.0063161869274003255 0.0
0.005202836905673872 -0.008237149025506613 0.0
0.01596435649283901 -0.017309888654068392 0.0
0.015734182397988506 -0.04803092714876458 0.0
0.014785932397287874 -0.04726441469171791 0.0
0.0144610830127883 -0.04780751483157539 0.0
0.01332689306682244 -0.007955191280840193 0.0
0.013631615235935878 -0.04833587651693157 0.0
0.024843928916007552 -0.017353072610769037 0.0
0.014340942042599118 -0.022568289721126393 0.0
0.019878208868245373 -0.011870805912244296 0.0
0.01375259159881796 -0.04761053512006366 0.0
0.014579565873622878 -0.03983983201976465 0.0
0.014755283647124104 -0.0456327152476263 0.0
0.014481521557125877 -0.03654366530595598 0.0
0.00983601085674405 -0.02082992534389913 0.0
0.010021363467426617 -0.028972631784969248 0.0
0.009649997769060432 -0.02424963552333933 0.0
0.012501607022906074 -0.044686009881106395 0.0
0.011870313917337644 -0.04212578079206689 0.0
0.015328612083971864 -0.04842283941097205 0.0
0.01207847929375008 -0.04700134108272176 0.0
0.020867594333017568 -0.01947624825593715 0.0
0.021107819015832342 -0.027652058925848676 0.0
0.019301776377722735 -0.03992103534484911 0.0
0.014638278928706342 -0.04804524499497397 0.0
0.016961016009942 -0.047286578140594934 0.0
0.0050773272222624745 -0.022794628992377202 0.0
0.009203653615635179 -0.018935462524095302 0.0
0.009666165574666973 -0.016277268728344826 0.0
0.0175313195322894 -0.024904320780282957 0.0
0.01663909310009431 -0.041215475992171756 0.0
0.016957214762779067 -0.038076926468321906 0.0
0.016049528408227605 -0.046414239395300004 0.0
0.018628599697952528 -0.042983609811487716 0.0
0.013716445700493681 -0.04138099930097443 0.0
0.01432966512206375 -0.04655984557926911 0.0
0.013512719248091953 -0.038233323321581185 0.0
0.02471107503636688 -0.011036625085517036 0.0
0.015020801776119266 -0.048574844170500196 0.0
0.017546417251432918 -0.038176582188052255 0.0
0.01775625079713292 -0.03484111843224044 0.0
0.016675002411419868 -0.04463408430018666 0.0
0.016216956055436466 -0.04416583693734749 0.0
0.011071873430305955 -0.045378353239030264 0.0
0.015378851978772444 -0.04892466643500214 0.0
0.016527784498965 -0.04147643814833764 0.0
0.017197118287516192 -0.02983224815372143 0.0
0.017136783976032334 -0.02009472031207459 0.0
0.020164074940271035 -0.04243931889967702 0.0
0.009368256951295773 -0.011046675631236432 0.0
0.020452072746162883 -0.010478921422759439 0.0
0.02229341885267049 -0.03590335514631701 0.0
0.008393740620909317 -0.018374496102954538 0.0
0.013940017568731974 -0.04835091693058182 0.0
0.020700272372377926 -0.015936256867840042 0.0
0.020065819587408093 -0.01635142576035771 0.0
0.015912618916292132 -0.04643314298553243 0.0