<VTKFile type="UnstructuredGrid"  version="0.1">
<UnstructuredGrid>
<Piece NumberOfPoints="713" NumberOfCells="1304">
<Points>
<DataArray type="Float64" NumberOfComponents="3" format="ascii">
0.0 0.0 0.0
10.0 0.0 0.0
10.0 2.0 0.0
5.0 2.0 0.0
0.0 2.0 0.0
0.199999999999856 0.0 0.0
0.3999999999996677 0.0 0.0
0.5999999999994683 0.0 0.0
0.7999999999993286 0.0 0.0
0.9999999999991888 0.0 0.0
1.199999999999033 0.0 0.0
1.399999999998576 0.0 0.0
1.599999999997992 0.0 0.0
1.799999999997408 0.0 0.0
1.999999999996825 0.0 0.0
2.199999999996241 0.0 0.0
2.399999999995657 0.0 0.0
2.599999999995073 0.0 0.0
2.79999999999449 0.0 0.0
2.999999999993906 0.0 0.0
3.199999999993322 0.0 0.0
3.399999999992738 0.0 0.0
3.599999999992154 0.0 0.0
3.799999999991571 0.0 0.0
3.999999999991022 0.0 0.0
4.199999999991187 0.0 0.0
4.399999999991491 0.0 0.0
4.599999999991795 0.0 0.0
4.799999999992099 0.0 0.0
4.999999999992403 0.0 0.0
5.199999999992706 0.0 0.0
5.39999999999301 0.0 0.0
5.599999999993313 0.0 0.0
5.799999999993618 0.0 0.0
5.999999999993922 0.0 0.0
6.199999999994227 0.0 0.0
6.39999999999453 0.0 0.0
6.599999999994833 0.0 0.0
6.799999999995138 0.0 0.0
6.999999999995442 0.0 0.0
7.199999999995747 0.0 0.0
7.39999999999605 0.0 0.0
7.599999999996353 0.0 0.0
7.799999999996658 0.0 0.0
7.999999999996962 0.0 0.0
8.199999999997265 0.0 0.0
8.399999999997569 0.0 0.0
8.599999999997873 0.0 0.0
8.799999999998176 0.0 0.0
8.99999999999848 0.0 0.0
9.199999999998786 0.0 0.0
9.399999999999089 0.0 0.0
9.599999999999392 0.0 0.0
9.799999999999697 0.0 0.0
10.0 0.1999999999996293 0.0
10.0 0.3999999999991157 0.0
10.0 0.5999999999985328 0.0
10.0 0.7999999999979498 0.0
10.0 0.9999999999973885 0.0
10.0 1.199999999997894 0.0
10.0 1.39999999999842 0.0
10.0 1.599999999998947 0.0
10.0 1.799999999999474 0.0
9.799999999999999 2.0 0.0
9.6 2.0 0.0
9.399999999999999 2.0 0.0
9.2 2.0 0.0
8.999999999999998 2.0 0.0
8.799999999999999 2.0 0.0
8.599999999999998 2.0 0.0
8.399999999999999 2.0 0.0
8.2 2.0 0.0
7.999999999999998 2.0 0.0
7.799999999999999 2.0 0.0
7.599999999999999 2.0 0.0
7.399999999999999 2.0 0.0
7.199999999999999 2.0 0.0
7.0 2.0 0.0
6.799999999999999 2.0 0.0
6.6 2.0 0.0
6.399999999999999 2.0 0.0
6.199999999999999 2.0 0.0
5.999999999999999 2.0 0.0
5.8 2.0 0.0
5.6 2.0 0.0
5.399999999999999 2.0 0.0
5.199999999999999 2.0 0.0
4.8 2.0 0.0
4.6 2.0 0.0
4.399999999999999 2.0 0.0
4.199999999999998 2.0 0.0
3.999999999999999 2.0 0.0
3.799999999999999 2.0 0.0
3.599999999999999 2.0 0.0
3.399999999999999 2.0 0.0
3.199999999999998 2.0 0.0
2.999999999999999 2.0 0.0
2.799999999999999 2.0 0.0
2.599999999999999 2.0 0.0
2.399999999999999 2.0 0.0
2.199999999999999 2.0 0.0
2.0 2.0 0.0
1.799999999999999 2.0 0.0
1.599999999999999 2.0 0.0
1.399999999999999 2.0 0.0
1.199999999999999 2.0 0.0
0.9999999999999991 2.0 0.0
0.7999999999999998 2.0 0.0
0.5999999999999996 2.0 0.0
0.3999999999999995 2.0 0.0
0.1999999999999993 2.0 0.0
0.0 1.799999999999167 0.0
0.0 1.6 0.0
0.0 1.400000000001387 0.0
0.0 1.200000000002774 0.0
0.0 1.000000000004117 0.0
0.0 0.8000000000033287 0.0
0.0 0.6000000000024965 0.0
0.0 0.4000000000016644 0.0
0.0 0.200000000000832 0.0
1.499207686858938 0.9671416246672391 0.0
2.690335006295381 0.9619521672166851 0.0
3.892537609238439 1.007271393615351 0.0
8.916602958236062 0.9848120741100651 0.0
7.714518201951718 1.024234589865042 0.0
6.514518201951581 1.024234589865268 0.0
5.299999999999998 1.000000000000349 0.0
0.7620577975594133 1.201991596673393 0.0
4.61755859746166 1.240410629378135 0.0
2.099999999996533 0.6749999999988996 0.0
3.289480163184942 0.6802242156869155 0.0
8.299999999999976 1.325000000000064 0.0
7.110519836808121 1.319775784312006 0.0
5.893184537067197 1.292851873188582 0.0
3.268568008578649 1.341967835735878 0.0
2.118368267083699 1.321829331075689 0.0
5.930896443153832 0.6493414313150682 0.0
7.106926174231782 0.6329785805444448 0.0
8.306926174233002 0.6329785805444098 0.0
4.427960725065653 0.6389803625370323 0.0
0.9828791719046732 0.6520555711814596 0.0
9.383333333333349 0.6166666666667164 0.0
9.383333333333326 1.383333333333367 0.0
4.974443803660211 0.5526668589022862 0.0
1.248084267804327 1.464555585366204 0.0
4.139486343919472 1.468449088519687 0.0
5.077806736162063 1.478342020848787 0.0
1.629462398503482 0.5098631373669138 0.0
2.579462070540726 0.5133714280880515 0.0
3.770778974032556 0.5099482598296803 0.0
8.764748922637567 1.526880805960684 0.0
7.820537929455645 1.486628571911716 0.0
6.632254923791462 1.492045881343967 0.0
2.796478414430566 1.477149214423874 0.0
6.403521585563812 0.5228507855762514 0.0
7.603521585564883 0.5228507855756581 0.0
8.783559188644787 0.5066440811355862 0.0
0.5060338924245764 0.5082251307884346 0.0
5.451633334958382 0.4799315318847731 0.0
1.683269995544083 1.547372422998862 0.0
0.448590368789599 1.551409631210402 0.0
5.545526974704655 1.582008455135239 0.0
3.666056976948354 1.56999765613834 0.0
0.4385739326402744 0.9352922270094057 0.0
9.58170539854767 0.9922137522194456 0.0
4.93200119575972 0.9247090920592975 0.0
6.20679636316332 1.642443126922768 0.0
7.418963044745086 1.587405313446662 0.0
2.98103695524982 0.412594686552066 0.0
2.420975602092416 1.592770352831584 0.0
7.97902439790374 0.4072296471687943 0.0
6.779024397902082 0.4072296471687297 0.0
1.130444757308209 0.9859238872709168 0.0
0.8901814758011342 1.60566856081121 0.0
4.263670373274499 0.9915754392410991 0.0
3.096698167273431 1.009056907826855 0.0
6.088506433998166 0.9857489435828969 0.0
1.902225037409936 1.003483800311746 0.0
7.288506433998439 0.9857489435828686 0.0
8.498964973312972 1.005823551167602 0.0
2.307571737417198 1.008136792450924 0.0
8.100397971125554 1.000138280273345 0.0
6.900397971125225 1.000138280273792 0.0
3.499307350770321 0.9996496628144824 0.0
5.703656022566558 0.9885479657552226 0.0
4.719420624357892 1.622286409566126 0.0
4.099803549896894 0.3600308081356619 0.0
1.286100671532495 0.3637431910670685 0.0
9.120549139677793 1.655065205594329 0.0
9.11726214008418 0.3400668903113251 0.0
4.642568097328033 0.3514924793220939 0.0
9.630437629189052 0.3309104953729904 0.0
9.674493769554315 1.668196579944218 0.0
1.936458797611609 0.3337070483410596 0.0
3.461817573918652 0.3447876019040473 0.0
8.440152788772068 1.649667667046397 0.0
6.973083089482548 1.643748677366674 0.0
3.126874515006838 1.659115470008545 0.0
6.070607878384977 0.3410183041038941 0.0
7.255014454789089 0.32792256737713 0.0
8.462493615948901 0.3368393217476116 0.0
9.236261261261264 0.9276047786917867 0.0
5.885444386845415 1.667751020273455 0.0
0.8062340689595878 0.3261579034781319 0.0
2.29463843780282 0.308358158429197 0.0
8.10536156219338 1.691641841570632 0.0
4.041916759198581 0.7211683801597477 0.0
1.324377365289917 0.710525897087282 0.0
9.023167917315867 1.292262965009952 0.0
2.044244009166302 1.693807225416931 0.0
0.7675765545556328 0.8969765944392112 0.0
2.86965991063896 0.7069213925303978 0.0
6.330340089355722 1.293078607468788 0.0
7.530340089355831 1.29307860746885 0.0
2.509347777214458 1.27231292939881 0.0
7.890652222779963 0.7276870706009825 0.0
6.690652222780154 0.7276870706013264 0.0
4.380959112578968 1.65866292149053 0.0
0.3278422400819535 1.233362752678148 0.0
5.754468991464942 0.3469215055361071 0.0
9.69195804401614 0.7000195364707393 0.0
9.691250997975434 1.303243780084337 0.0
5.54324561063747 1.237401556904767 0.0
9.044596057577811 0.6843248705785732 0.0
5.208929198448351 0.3519433027337513 0.0
3.708880196230617 1.249762029554333 0.0
1.713349558540635 1.234899745098077 0.0
4.586522821995393 0.9261740906803194 0.0
5.241145838821565 0.7007005766013242 0.0
1.434457446926135 1.701926055218157 0.0
0.2821921707428039 0.3393165318407161 0.0
3.42846431357046 1.714274134409306 0.0
5.26283485467567 1.710141275531951 0.0
3.966530105129177 1.718376080180638 0.0
4.891301048299285 1.259923533724591 0.0
0.2787500712946937 0.6906723798523376 0.0
1.822166578929051 0.7301892210727335 0.0
8.593276160688786 1.287322908694633 0.0
2.386017956680413 0.7288816957021155 0.0
3.576911792171353 0.7225526638483954 0.0
8.013982043315597 1.271118304297217 0.0
6.82303669320588 1.277631295759485 0.0
2.891837633696712 1.215141906356511 0.0
8.708162366297856 0.7848580936429009 0.0
7.496736072543097 0.7897651325976158 0.0
6.296736072542775 0.7897651325982009 0.0
5.523181420933933 0.7588744249744506 0.0
4.725538117155759 0.6529070682798582 0.0
2.736307197014292 0.273961667653487 0.0
7.663692802980817 1.726038332346062 0.0
6.446842959287713 1.783714797320288 0.0
1.126188383272983 1.743715177525389 0.0
2.64757240694847 1.787239829472812 0.0
6.546646507559373 0.2589894635657943 0.0
7.746646507561152 0.2589894635657218 0.0
4.079302268890254 1.221431431691139 0.0
4.433746883463333 0.2983726043497702 0.0
1.032697650548726 1.318076986199429 0.0
1.309492735411376 1.208980965369829 0.0
3.896105387998365 0.2579746081881307 0.0
9.378751775005455 1.725996478164223 0.0
9.3965279828929 0.2649862374471925 0.0
1.515757555362918 0.2603060454608533 0.0
4.959097093232828 1.726144293543605 0.0
4.912501341257775 0.2529154558175828 0.0
4.342421824442713 1.285376618065631 0.0
7.023506283123107 0.293611963231815 0.0
8.215829626877609 0.2682061590942965 0.0
5.28145265730745 1.291130016052329 0.0
8.693992162747364 1.744100892812201 0.0
0.6256567126095668 1.775064851453201 0.0
0.2724967459749605 1.756941612685287 0.0
8.90781713264278 0.2741674349222226 0.0
7.184202236567151 1.709454269177068 0.0
3.212962614055919 0.2641656831057426 0.0
0.6761590188374282 0.6746441670621973 0.0
1.020489328989316 0.2487299689497893 0.0
1.485017749467193 1.402133856149482 0.0
6.734223224917944 1.790518105434539 0.0
2.657549589911705 0.7636227781082678 0.0
6.542590471647475 1.237213715285722 0.0
7.742745187066703 1.235538225115726 0.0
0.5794341726414672 0.2480285055479751 0.0
1.842901067642841 1.760146518280044 0.0
3.84389577648662 0.7524680119172447 0.0
3.061589173628368 1.407936939342627 0.0
6.144447294584154 0.5911674363009913 0.0
7.344447294585433 0.5911674362995804 0.0
8.544447294586682 0.5911674362982269 0.0
5.491507940982565 0.1734458797927824 0.0
[...]
<PointData Vectors="fields">
<DataArray type="Float64" Name="U" NumberOfComponents="3" format="ascii">
0.0 0.0 0.0
0.02837698497801673 0.0 0.0
0.002355523308260707 -0.0052752962080836905 0.0
0.014111845668533064 -0.04531978816062373 0.0
0.0258598917369653 -0.004946448335923481 0.0
0.0002942304615599048 -0.005422705640982141 0.0
0.0008862803368980997 -0.00890289478510899 0.0
0.0014197951727490592 -0.011975734045459884 0.0
0.0018677044122570364 -0.014675528035609554 0.0
0.002260295512964593 -0.01725054381853767 0.0
0.0026391847677888092 -0.01972366555508691 0.0
0.003020328462378795 -0.022103659958392367 0.0
0.0034385669784034703 -0.024403025900115963 0.0
0.003870422394640437 -0.026622835152624504 0.0
0.004336353462101595 -0.028739245079668886 0.0
0.0048249687048225005 -0.030751713617369603 0.0
0.005356837414440047 -0.03266163522844442 0.0
0.00589756603010397 -0.034453509106461666 0.0
0.006492376067121797 -0.03612732892959341 0.0
0.007085063338773707 -0.03767650023346855 0.0
0.007725356938279084 -0.03909443913958453 0.0
0.008368103957750492 -0.040369593596043224 0.0
0.009044354433006389 -0.04151130078331215 0.0
0.009726410715609571 -0.042482553648833715 0.0
0.010416075306976446 -0.04335313694331308 0.0
0.011134525994243229 -0.04405469582971062 0.0
0.011845757175417646 -0.044599578404310954 0.0
0.012578561387622079 -0.044997666828170815 0.0
0.01329994708788819 -0.04523253553616644 0.0
0.014051157375710206 -0.04531912799522352 0.0
0.01478200409238553 -0.045249776485183434 0.0
0.015512696801089767 -0.04502089127269732 0.0
0.016240006367481553 -0.04463957966323414 0.0
0.016957927383768074 -0.04410067077951784 0.0
0.017656061952954827 -0.04341613788230051 0.0
0.01836838181973222 -0.04259136839273227 0.0
0.019041610132958957 -0.041580306357484914 0.0
0.01971632484774788 -0.04047319196666838 0.0
0.020359971521842987 -0.03922134164551159 0.0
0.021001781113516412 -0.03781225955254654 0.0
0.021606709990221767 -0.03627556996835053 0.0
0.02218944916627014 -0.034618285564473925 0.0
0.022730065548593515 -0.032812820180548 0.0
0.023258712195709394 -0.030934165589351078 0.0
0.023746895360906392 -0.028941266547462815 0.0
0.02421703896688774 -0.026836770449803416 0.0
0.02464976302909627 -0.02462962303787737 0.0
0.025064292251967917 -0.02234325589493839 0.0
0.025443443469768495 -0.01996939466982532 0.0
0.025830911090034575 -0.017504133301436277 0.0
0.026211192838027614 -0.01494966484373167 0.0
0.026634247250915333 -0.012250835268542122 0.0
0.027104325445316487 -0.009320925073129871 0.0
0.02783072505119668 -0.0058266687388940225 0.0
0.023958450225281317 -0.0020822153802752164 0.0
0.021108828237184102 -0.0032258430210411393 0.0
0.018525644381713634 -0.003951405241660054 0.0
0.01615497319571045 -0.004498472184358827 0.0
0.013855732739862526 -0.004842292517409412 0.0
0.011598414930314252 -0.005066332283502589 0.0
0.009343148455387347 -0.005201683653902055 0.0
0.0070540903694999366 -0.005262423604971171 0.0
0.004723869959492028 -0.005275098219347706 0.0
0.0023538062061987147 -0.00765252646599579 0.0
0.00236070990627115 -0.010060771517708574 0.0
0.0024059270233002146 -0.012506366764382416 0.0
0.002509669436208801 -0.01497712908742159 0.0
0.0026809884881261094 -0.017438007657374164 0.0
0.002913241618868309 -0.0198567068739193 0.0
0.0032093950295406207 -0.022242864318769803 0.0
0.003556267925101749 -0.024544418133097337 0.0
0.003954587002138624 -0.026760421640522405 0.0
0.004408675070986699 -0.028887299774817903 0.0
0.0048838195542389 -0.03090313432921337 0.0
0.005418225084826518 -0.03281176449069981 0.0
0.005958966027187521 -0.03460184041951741 0.0
0.006550470481356218 -0.036267027881907575 0.0
0.007158886487477409 -0.03780820953858191 0.0
0.007791240352202586 -0.039214207403359465 0.0
0.008428864626646614 -0.04045140153882248 0.0
0.009101517113403923 -0.04160717774425007 0.0
0.009789786655514318 -0.04258192265583846 0.0
0.010474065931969135 -0.043415457936197305 0.0
0.011188341966696689 -0.04410811912071932 0.0
0.011924678720757868 -0.044641322778351894 0.0
0.01263546159409804 -0.04502082561341059 0.0
0.013378874638040219 -0.045249418442911735 0.0
0.014861536705719908 -0.04522249554881625 0.0
0.015578202012340402 -0.044985307668751646 0.0
0.016288378904377166 -0.04459617183686893 0.0
0.017014311625280172 -0.044062018394301745 0.0
0.017732284312299493 -0.043354907063876805 0.0
0.018446209901217654 -0.04250076716211223 0.0
0.019112933514918537 -0.04150771088512672 0.0
0.019786152459171306 -0.04036791132786235 0.0
0.02043593021137676 -0.039094264454129564 0.0
0.02107519111701055 -0.03767879915971944 0.0
0.02167085172991544 -0.03610078372292716 0.0
0.02225956094409701 -0.03444671587519804 0.0
0.022805316047914675 -0.03264043788653515 0.0
0.023317773120894985 -0.030718611449164462 0.0
0.023812810996660466 -0.028686304158747043 0.0
0.024261447446759322 -0.02654922189050383 0.0
0.024654645568922353 -0.024323072729591888 0.0
0.025016166981866535 -0.022002822912448775 0.0
0.025309439775099432 -0.019615170713691135 0.0
0.025544041928220955 -0.01716795984402338 0.0
0.02570696974188093 -0.014697434677147679 0.0
0.025804360341206853 -0.012214634477436832 0.0
0.025852198680888342 -0.009758221931854529 0.0
0.02586355494162214 -0.007333588285330093 0.0
0.023478729904286684 -0.004947657715650101 0.0
0.02113510098647011 -0.004935489261783773 0.0
0.018836584539046717 -0.004879094559566121 0.0
0.016563252691809412 -0.004749404057727983 0.0
0.014297616435096798 -0.00451010360439356 0.0
0.011987980940920568 -0.004170781304711796 0.0
0.009604891880868462 -0.003628589194763839 0.0
0.007029567355167451 -0.0028788486497002257 0.0
0.003969606656418287 -0.001627186619918231 0.0
0.013783432832490903 -0.023369161510542105 0.0
0.013784988922215169 -0.03547798358356677 0.0
0.014100041607715694 -0.04322709295352755 0.0
0.014120025551441753 -0.018587213728485954 0.0
0.013862520181182234 -0.031978846403154744 0.0
0.013950635232232063 -0.04127876588516016 0.0
0.014073987749414603 -0.045479455178442964 0.0
0.016533782911974847 -0.0142388503310584 0.0
0.014411875687517511 -0.045325894231142624 0.0
0.011080921717777097 -0.0299437434888098 0.0
0.01218562023926916 -0.03994190712036779 0.0
0.010798871980668017 -0.025838541533098162 0.0
0.011819186803654486 -0.03721375678468906 0.0
0.01316059141812609 -0.044100257139451676 0.0
0.016123417363263302 -0.03980599597441024 0.0
0.017034018810649757 -0.030103800486190567 0.0
0.015218659599911323 -0.043957704934232136 0.0
0.016668515706942597 -0.037246358201483004 0.0
0.01775215403772851 -0.025818626059865086 0.0
0.013330911187302574 -0.0449510028244554 0.0
0.010272622556301859 -0.017087056556509474 0.0
0.01828698626948742 -0.012535933750018404 0.0
0.009575974830946 -0.01269844895414116 0.0
0.014018220818610363 -0.04557438134326259 0.0
0.01917325464574544 -0.020298960045903633 0.0
0.01552897337843965 -0.04410345506980702 0.0
0.013951489063273597 -0.045555484721573794 0.0
0.009043347574100545 -0.024863506552892642 0.0
0.010158555858937268 -0.034464459940487135 0.0
0.011938366844019747 -0.04259917294443582 0.0
0.008324744339771564 -0.020382530865974968 0.0
0.009687755330002053 -0.030872944897804934 0.0
0.011308344093303033 -0.04050279458926163 0.0
0.017618958795147473 -0.036294859483678346 0.0
0.016403340298060495 -0.041814742293998654 0.0
0.018113684193716686 -0.032980576031661823 0.0
0.019442559180525957 -0.020258557974435012 0.0
0.00849671711386459 -0.0106733634819267 0.0
0.01490467244068597 -0.04517646378402918 0.0
0.019657081556446885 -0.025386762096423952 0.0
0.02054900389442609 -0.01033064975741647 0.0
0.012956290919969492 -0.0449789983115126 0.0
0.016773908417755945 -0.042059233855578665 0.0
0.013606728606471913 -0.00995021091182427 0.0
0.013896371593780486 -0.010021614475510796 0.0
0.014054086548938523 -0.04564404847749174 0.0
0.011354996845043024 -0.042733528796025426 0.0
0.009384534676337743 -0.03460078099249604 0.0
0.010023363837731883 -0.03771415006751904 0.0
0.019109018734306687 -0.03299695641281608 0.0
0.01966421968989866 -0.029287572247999268 0.0
0.017697474464417065 -0.03953963722683401 0.0
0.014036167085442888 -0.018915871870045276 0.0
0.020988810256785756 -0.015855039912533914 0.0
0.014053198300433622 -0.04456739126776623 0.0
0.014136612786252166 -0.03865560219793724 0.0
0.014131562920803573 -0.04338228073631537 0.0
0.014128232379247726 -0.02788467877546556 0.0
0.01418577216329788 -0.03580859969438728 0.0
0.01396555490784317 -0.023619108112041105 0.0
0.0141522189202792 -0.032013122428125866 0.0
0.014057621932650324 -0.028060982421151584 0.0
0.014074743459976363 -0.03880636693564761 0.0
0.014072225238570723 -0.041259390939212076 0.0
0.014097116606018867 -0.04470453220185519 0.0
0.014726337366469458 -0.04536470329152409 0.0
0.012001653302237283 -0.04391866945961125 0.0
0.007088923432175832 -0.020853261849615168 0.0
0.006632342956195663 -0.015995516241739872 0.0
0.021672877633206137 -0.01608530064658396 0.0
0.01322174876901865 -0.04525664734536943 0.0
0.021947311699038703 -0.00890747336157208 0.0
0.006277220142111056 -0.009143502978567888 0.0
0.00760076330932217 -0.028196071111613506 0.0
0.010529756510684506 -0.040922458978215545 0.0
0.007320580842684922 -0.024187409586103426 0.0
0.009750234052187471 -0.03817074005502505 0.0
0.01834637317122424 -0.03875296329313559 0.0
0.01656461653709878 -0.04332535632408743 0.0
0.01915773416441082 -0.035980051165398125 0.0
0.0210306984870904 -0.024029139766779367 0.0
0.014686784783139792 -0.014521739033292468 0.0
0.011987181164849415 -0.04401392897484094 0.0
0.006205619926752738 -0.014818825850137916 0.0
0.007947217174521258 -0.03179463865843368 0.0
0.007341180757047304 -0.027887562455160775 0.0
0.013122759545314215 -0.043810318192136384 0.0
0.01101749112055111 -0.021317875988298242 0.0
0.010724731618027524 -0.01723381374299415 0.0
0.020646391288344345 -0.029265484128473993 0.0
0.013114770921263286 -0.01428953307555942 0.0
0.011973089489562227 -0.03693360048221125 0.0
0.012728385822576611 -0.04225121533668904 0.0
0.011666312444473387 -0.0336822550888628 0.0
0.016306440647776158 -0.033867474448146494 0.0
0.016560650122749456 -0.03023720819110986 0.0
0.01565447093287251 -0.04019527500094629 0.0
0.015565667086005376 -0.0447454366641426 0.0
0.01697119191164007 -0.008709123833152341 0.0
0.015821294421808393 -0.0444225891024056 0.0
0.01724061658415607 -0.00830130409120512 0.0
0.010417032172821377 -0.008825106719547194 0.0
0.013623402028256798 -0.04506987459637559 0.0
0.017486793243702115 -0.016999942018175063 0.0
0.01454477527877906 -0.04543842489056467 0.0
0.01521031738345736 -0.042361492668972656 0.0
0.016461678505959143 -0.02578739149165097 0.0
0.013967318567673663 -0.0452934528920568 0.0
0.014321587788220494 -0.04551995173270103 0.0
0.021588724278074414 -0.022489558850284794 0.0
0.006282571607223176 -0.007179431091906193 0.0
0.018032451481673817 -0.040686677384513266 0.0
0.013426437210216429 -0.04536386836284266 0.0
0.016748266413174444 -0.043389281894732346 0.0
0.014183204443918334 -0.04558974118487107 0.0
0.010778803269028303 -0.007582417101750574 0.0
0.011435608165812716 -0.027018004114867246 0.0
0.011001200454845435 -0.02247001080352872 0.0
0.01177616142754474 -0.032744498153438904 0.0
0.012698495440514128 -0.04166658805744757 0.0
0.011521155303617482 -0.028941705489208797 0.0
0.01236383891793725 -0.03931607314695888 0.0
0.015605702456419693 -0.03710362951251726 0.0
0.016314615967785752 -0.02116162385555509 0.0
0.015786695777071893 -0.03399202964082922 0.0
0.015023139910260028 -0.0424153561257216 0.0
0.014514943422252152 -0.04511008742570928 0.0
0.013721892584825677 -0.04545115174635313 0.0
0.008510249740220409 -0.03573299232431694 0.0
0.0077634323555103996 -0.03232921219823612 0.0
0.010100739800070828 -0.041461241373413255 0.0
0.02238956186827374 -0.018768241923017855 0.0
0.020332162689289453 -0.03494769116635894 0.0
0.01807705210904556 -0.04092646271618916 0.0
0.020691768015025574 -0.03155772754351535 0.0
0.014801611573342097 -0.043946033058749355 0.0
0.01261906931079999 -0.04484429404952758 0.0
0.01770462442693032 -0.01766116011227823 0.0
0.016389904744663755 -0.02107957750676282 0.0
0.011127959960194205 -0.043075869483756905 0.0
0.0056770557698247286 -0.012779521177618032 0.0
0.022859188732340014 -0.012347102365004203 0.0
0.006199143612071985 -0.023536001965189676 0.0
0.014207728734572682 -0.045476488225190494 0.0
0.013817058023429234 -0.045447910985351045 0.0
0.014751679299707138 -0.044751251699189774 0.0
0.018942046827749862 -0.037777086745218943 0.0
0.02140928603632566 -0.026754753420596928 0.0
0.013790020471204305 -0.045471728951207435 0.0
0.005997031490064532 -0.021191651042035402 0.0
0.023090279599049305 -0.012546057980748718 0.0
0.022961838889969156 -0.008199115725512355 0.0
0.022291663154367237 -0.018725050128638412 0.0
0.008849301314430253 -0.0365258717112416 0.0
0.00949591995514166 -0.03931308997853422 0.0
0.01053966776525277 -0.0130633356698049 0.0
0.00541855998005649 -0.017569885421749996 0.0
0.018327311085992948 -0.023135200850543686 0.0
0.00931847841244392 -0.039740672880947014 0.0
0.012232491709018342 -0.03518660785293454 0.0
0.012816301454819694 -0.04109787728227257 0.0
0.012005329480262845 -0.03168420825728894 0.0
0.00501151678294316 -0.011700067906656618 0.0
0.021639422631643507 -0.027099029014868922 0.0
0.013059560559602213 -0.04298976948056467 0.0
0.016775507980516722 -0.03835203900321132 0.0
0.01570605894082785 -0.04308431418949022 0.0
0.017236952600093232 -0.035294545723580116 0.0
0.018342477651579 -0.023103415517169414 0.0
0.015523241956624707 -0.044972103345508004 0.0
0.011801287320369887 -0.024119760488400956 0.0
0.01951387618071618 -0.037290203018371826 0.0
0.020322840209979605 -0.03426976018431548 0.0
0.017456807786080733 -0.042463965675419255 0.0
0.019488158785234907 -0.013212477710570558 0.0
0.011790868473527925 -0.012666732462072781 0.0
0.012268189592454128 -0.04455255718078549 0.0
0.0157041169243262 -0.04309271780158935 0.0
0.0074535273709483655 -0.033741683898336094 0.0
0.006690270273744902 -0.030074716531858378 0.0
0.01528232036547138 -0.04453580929202449 0.0
0.011478145126275978 -0.020274430868877577 0.0
0.01902463699299895 -0.028397696342787725 0.0
0.01609027135854019 -0.011471428508266488 0.0
0.016382254724943476 -0.0441492425529256 0.0
0.01989002094802388 -0.006799275269066376 0.0
0.010397999338072929 -0.04194931204891403 0.0
0.0061574700865984 -0.026133286474810197 0.0
0.014926933973097363 -0.045125701404481106 0.0
0.01106966099430682 -0.043251760843197186 0.0
0.016106903579136356 -0.041368318563963204 0.0
0.02120098627297965 -0.03161324656565994 0.0
0.01405644175562453 -0.04563127066945351 0.0
0.014569786286919746 -0.00756577270217457 0.0
0.013123545972080862 -0.04473255268958426 0.0
0.013789276547128183 -0.04409575818212441 0.0
0.013110500305507812 -0.025869337534978762 0.0
0.013395279890856728 -0.03722674938505238 0.0
0.01322229428397035 -0.029953441773554742 0.0
0.013498612533429877 -0.03994062344009718 0.0
0.0052895376568762136 -0.018165292029641615 0.0
0.014906688551036348 -0.007284756240197834 0.0
0.017638376927606662 -0.042323446889073676 0.0
0.014087664237326384 -0.045630797670994434 0.0
0.013655950661288 -0.04546338051957375 0.0
0.011145956767364695 -0.01002428946797616 0.0
0.0228767791441364 -0.02121622808518029 0.0
0.017830046293617292 -0.028257056414276432 0.0
0.017843085265613706 -0.03191580777318402 0.0
0.016581240495478055 -0.038897479593021526 0.0
0.011089681493238272 -0.03555808179629747 0.0
0.011519886005958269 -0.03854465919477362 0.0
0.012604970072768111 -0.04331507103110883 0.0
0.006452814794777684 -0.02996881424928923 0.0
0.005817798552590217 -0.02587995071708452 0.0
0.011758113283809879 -0.041695655573665724 0.0
0.010110557027827557 -0.032824404409941776 0.0
0.010590382623725914 -0.036180707778446994 0.0
0.016250740113990726 -0.027982172486272064 0.0
0.015761278813879984 -0.011939647640399132 0.0
0.008335836844667596 -0.007544452716709555 0.0
0.019432277220884326 -0.006489975145477676 0.0
0.014769439405103975 -0.03991234898157517 0.0
0.01515698944373477 -0.030118360973664875 0.0
0.014472245356946363 -0.04401867503283068 0.0
0.014935081217385125 -0.037176145827407636 0.0
0.015258348352743593 -0.025683116520633764 0.0
0.02184529616354445 -0.024888080708405497 0.0
0.008510336446260681 -0.005801827970097163 0.0
0.017849722914985874 -0.03473477851084767 0.0
0.016676086387667117 -0.04077332684759402 0.0
0.018312649428978416 -0.03121397941219876 0.0
0.013265752598359984 -0.03380878255962745 0.0
0.013563070769273624 -0.040161884000236084 0.0
0.013167028735102136 -0.030107354434466944 0.0
0.015367683366584919 -0.04504746173653689 0.0
0.01362914322242233 -0.04236526271694435 0.0
0.009967437583468816 -0.03156561910809057 0.0
0.00956203452292147 -0.0276246238429527 0.0
0.016621268927279442 -0.043891785068901575 0.0
0.01446559657727592 -0.04545375064412913 0.0
0.011850135056769516 -0.019107540238110725 0.0
0.013176729740019549 -0.021079040588868222 0.0
0.012927429896872088 -0.01633675247829142 0.0
0.012458349757629241 -0.04370877605226772 0.0
0.013235353676360553 -0.025731069380353466 0.0
0.00746623922222751 -0.033820545691736335 0.0
0.00832772615768561 -0.037025195350197375 0.0
0.014146506937315525 -0.045481674072493115 0.0
0.02128712086664765 -0.02972636343869181 0.0
0.01868171942467752 -0.03978292787657438 0.0
0.010924597091938229 -0.039745789699258446 0.0
0.01035966873078251 -0.036950080045793615 0.0
0.009066460951290637 -0.021778579759045808 0.0
0.0236990759485938 -0.005941663149257484 0.0
0.004852674969674525 -0.0077762595816546435 0.0
0.014909882037491462 -0.01615449399041072 0.0
0.014665621028359829 -0.04468940319763474 0.0
0.013805755960497039 -0.04400298126501251 0.0
0.013506539481786872 -0.04450399346083021 0.0
0.012414909117360965 -0.007505672049706195 0.0
0.012696191487871926 -0.045007074336151656 0.0
0.023216030957929838 -0.016207381652525853 0.0
0.013374045326968054 -0.021101975506097874 0.0
0.018576551891336206 -0.011079452851990735 0.0
0.012857829681858578 -0.044331108307871576 0.0
0.013615492638998493 -0.037154150260309854 0.0
0.013761481027295817 -0.0424748280494109 0.0
0.013509480237088875 -0.03407290439237649 0.0
0.00917420702987453 -0.0194434530143114 0.0
0.009355094989571952 -0.027049832689319438 0.0
0.009006713771957383 -0.02267000573806423 0.0
0.011701633324893728 -0.041643568936214945 0.0
0.011099184104564397 -0.039253716814573965 0.0
0.014301153015316374 -0.04506682249206673 0.0
0.011323331887799352 -0.043801435612257265 0.0
0.019495693460024024 -0.01818381172641093 0.0
0.019674981179512243 -0.025829774386918535 0.0
0.017984852633858812 -0.03721742136131772 0.0
0.013646296115007617 -0.04470041072671789 0.0
0.01579321353011373 -0.044018575474127686 0.0
0.004724485260902608 -0.021293577757418386 0.0
0.00858696509356671 -0.017730367252326462 0.0
0.009015418160914388 -0.015256464005723305 0.0
0.016344857584096727 -0.02327133233120036 0.0
0.015522498559530473 -0.03842871250275305 0.0
0.015811234729859965 -0.035497310371812904 0.0
0.014955707497034247 -0.04319912613423767 0.0
0.017360330827925062 -0.04007389297961371 0.0
0.012817611457681864 -0.03858239056121312 0.0
0.01336477199242596 -0.0433293855417188 0.0
0.012611319152707743 -0.03564234100681202 0.0
0.023096257839928983 -0.010304463766460322 0.0
0.01400424857227002 -0.045189405977070045 0.0
0.016368931554088244 -0.03561482044154806 0.0
0.016557949701845213 -0.03249448274288239 0.0
0.015535108744455843 -0.04156239283599377 0.0
0.015129420718513475 -0.041151406788442195 0.0
0.010352384499922072 -0.04227889881206303 0.0
0.014344615473460363 -0.04552845367392521 0.0
0.015406226073081765 -0.03864644374767313 0.0
0.016035396862078537 -0.02784377932488336 0.0
0.01597740372783114 -0.018802371472916614 0.0
0.018782348913447645 -0.039584982277785966 0.0
0.008733133572515789 -0.010388431139378354 0.0
0.019063794219498834 -0.009841830026190893 0.0
0.020788065317929115 -0.03352380293007779 0.0
0.007823379978819336 -0.017150455324661217 0.0
0.013032342936153525 -0.045016324917449085 0.0
0.01929862935929106 -0.014932218119733474 0.0