<VTKFile type="UnstructuredGrid"  version="0.1">
<UnstructuredGrid>
<Piece NumberOfPoints="713" NumberOfCells="1304">
<Points>
<DataArray type="Float64" NumberOfComponents="3" format="ascii">
0.0 0.0 0.0
10.0 0.0 0.0
10.0 2.0 0.0
5.0 2.0 0.0
0.0 2.0 0.0
0.199999999999856 0.0 0.0
0.3999999999996677 0.0 0.0
0.5999999999994683 0.0 0.0
0.7999999999993286 0.0 0.0
0.9999999999991888 0.0 0.0
1.199999999999033 0.0 0.0
1.399999999998576 0.0 0.0
1.599999999997992 0.0 0.0
1.799999999997408 0.0 0.0
1.999999999996825 0.0 0.0
2.199999999996241 0.0 0.0
2.399999999995657 0.0 0.0
2.599999999995073 0.0 0.0
2.79999999999449 0.0 0.0
2.999999999993906 0.0 0.0
3.199999999993322 0.0 0.0
3.399999999992738 0.0 0.0
3.599999999992154 0.0 0.0
3.799999999991571 0.0 0.0
3.999999999991022 0.0 0.0
4.199999999991187 0.0 0.0
4.399999999991491 0.0 0.0
4.599999999991795 0.0 0.0
4.799999999992099 0.0 0.0
4.999999999992403 0.0 0.0
5.199999999992706 0.0 0.0
5.39999999999301 0.0 0.0
5.599999999993313 0.0 0.0
5.799999999993618 0.0 0.0
5.999999999993922 0.0 0.0
6.199999999994227 0.0 0.0
6.39999999999453 0.0 0.0
6.599999999994833 0.0 0.0
6.799999999995138 0.0 0.0
6.999999999995442 0.0 0.0
7.199999999995747 0.0 0.0
7.39999999999605 0.0 0.0
7.599999999996353 0.0 0.0
7.799999999996658 0.0 0.0
7.999999999996962 0.0 0.0
8.199999999997265 0.0 0.0
8.399999999997569 0.0 0.0
8.599999999997873 0.0 0.0
8.799999999998176 0.0 0.0
8.99999999999848 0.0 0.0
9.199999999998786 0.0 0.0
9.399999999999089 0.0 0.0
9.599999999999392 0.0 0.0
9.799999999999697 0.0 0.0
10.0 0.1999999999996293 0.0
10.0 0.3999999999991157 0.0
10.0 0.5999999999985328 0.0
10.0 0.7999999999979498 0.0
10.0 0.9999999999973885 0.0
10.0 1.199999999997894 0.0
10.0 1.39999999999842 0.0
10.0 1.599999999998947 0.0
10.0 1.799999999999474 0.0
9.799999999999999 2.0 0.0
9.6 2.0 0.0
9.399999999999999 2.0 0.0
9.2 2.0 0.0
8.999999999999998 2.0 0.0
8.799999999999999 2.0 0.0
8.599999999999998 2.0 0.0
8.399999999999999 2.0 0.0
8.2 2.0 0.0
7.999999999999998 2.0 0.0
7.799999999999999 2.0 0.0
7.599999999999999 2.0 0.0
7.399999999999999 2.0 0.0
7.199999999999999 2.0 0.0
7.0 2.0 0.0
6.799999999999999 2.0 0.0
6.6 2.0 0.0
6.399999999999999 2.0 0.0
6.199999999999999 2.0 0.0
5.999999999999999 2.0 0.0
5.8 2.0 0.0
5.6 2.0 0.0
5.399999999999999 2.0 0.0
5.199999999999999 2.0 0.0
4.8 2.0 0.0
4.6 2.0 0.0
4.399999999999999 2.0 0.0
4.199999999999998 2.0 0.0
3.999999999999999 2.0 0.0
3.799999999999999 2.0 0.0
3.599999999999999 2.0 0.0
3.399999999999999 2.0 0.0
3.199999999999998 2.0 0.0
2.999999999999999 2.0 0.0
2.799999999999999 2.0 0.0
2.599999999999999 2.0 0.0
2.399999999999999 2.0 0.0
2.199999999999999 2.0 0.0
2.0 2.0 0.0
1.799999999999999 2.0 0.0
1.599999999999999 2.0 0.0
1.399999999999999 2.0 0.0
1.199999999999999 2.0 0.0
0.9999999999999991 2.0 0.0
0.7999999999999998 2.0 0.0
0.5999999999999996 2.0 0.0
0.3999999999999995 2.0 0.0
0.1999999999999993 2.0 0.0
0.0 1.799999999999167 0.0
0.0 1.6 0.0
0.0 1.400000000001387 0.0
0.0 1.200000000002774 0.0
0.0 1.000000000004117 0.0
0.0 0.8000000000033287 0.0
0.0 0.6000000000024965 0.0
0.0 0.4000000000016644 0.0
0.0 0.200000000000832 0.0
1.499207686858938 0.9671416246672391 0.0
2.690335006295381 0.9619521672166851 0.0
3.892537609238439 1.007271393615351 0.0
8.916602958236062 0.9848120741100651 0.0
7.714518201951718 1.024234589865042 0.0
6.514518201951581 1.024234589865268 0.0
5.299999999999998 1.000000000000349 0.0
0.7620577975594133 1.201991596673393 0.0
4.61755859746166 1.240410629378135 0.0
2.099999999996533 0.6749999999988996 0.0
3.289480163184942 0.6802242156869155 0.0
8.299999999999976 1.325000000000064 0.0
7.110519836808121 1.319775784312006 0.0
5.893184537067197 1.292851873188582 0.0
3.268568008578649 1.341967835735878 0.0
2.118368267083699 1.321829331075689 0.0
5.930896443153832 0.6493414313150682 0.0
7.106926174231782 0.6329785805444448 0.0
8.306926174233002 0.6329785805444098 0.0
4.427960725065653 0.6389803625370323 0.0
0.9828791719046732 0.6520555711814596 0.0
9.383333333333349 0.6166666666667164 0.0
9.383333333333326 1.383333333333367 0.0
4.974443803660211 0.5526668589022862 0.0
1.248084267804327 1.464555585366204 0.0
4.139486343919472 1.468449088519687 0.0
5.077806736162063 1.478342020848787 0.0
1.629462398503482 0.5098631373669138 0.0
2.579462070540726 0.5133714280880515 0.0
3.770778974032556 0.5099482598296803 0.0
8.764748922637567 1.526880805960684 0.0
7.820537929455645 1.486628571911716 0.0
6.632254923791462 1.492045881343967 0.0
2.796478414430566 1.477149214423874 0.0
6.403521585563812 0.5228507855762514 0.0
7.603521585564883 0.5228507855756581 0.0
8.783559188644787 0.5066440811355862 0.0
0.5060338924245764 0.5082251307884346 0.0
5.451633334958382 0.4799315318847731 0.0
1.683269995544083 1.547372422998862 0.0
0.448590368789599 1.551409631210402 0.0
5.545526974704655 1.582008455135239 0.0
3.666056976948354 1.56999765613834 0.0
0.4385739326402744 0.9352922270094057 0.0
9.58170539854767 0.9922137522194456 0.0
4.93200119575972 0.9247090920592975 0.0
6.20679636316332 1.642443126922768 0.0
7.418963044745086 1.587405313446662 0.0
2.98103695524982 0.412594686552066 0.0
2.420975602092416 1.592770352831584 0.0
7.97902439790374 0.4072296471687943 0.0
6.779024397902082 0.4072296471687297 0.0
1.130444757308209 0.9859238872709168 0.0
0.8901814758011342 1.60566856081121 0.0
4.263670373274499 0.9915754392410991 0.0
3.096698167273431 1.009056907826855 0.0
6.088506433998166 0.9857489435828969 0.0
1.902225037409936 1.003483800311746 0.0
7.288506433998439 0.9857489435828686 0.0
8.498964973312972 1.005823551167602 0.0
2.307571737417198 1.008136792450924 0.0
8.100397971125554 1.000138280273345 0.0
6.900397971125225 1.000138280273792 0.0
3.499307350770321 0.9996496628144824 0.0
5.703656022566558 0.9885479657552226 0.0
4.719420624357892 1.622286409566126 0.0
4.099803549896894 0.3600308081356619 0.0
1.286100671532495 0.3637431910670685 0.0
9.120549139677793 1.655065205594329 0.0
9.11726214008418 0.3400668903113251 0.0
4.642568097328033 0.3514924793220939 0.0
9.630437629189052 0.3309104953729904 0.0
9.674493769554315 1.668196579944218 0.0
1.936458797611609 0.3337070483410596 0.0
3.461817573918652 0.3447876019040473 0.0
8.440152788772068 1.649667667046397 0.0
6.973083089482548 1.643748677366674 0.0
3.126874515006838 1.659115470008545 0.0
6.070607878384977 0.3410183041038941 0.0
7.255014454789089 0.32792256737713 0.0
8.462493615948901 0.3368393217476116 0.0
9.236261261261264 0.9276047786917867 0.0
5.885444386845415 1.667751020273455 0.0
0.8062340689595878 0.3261579034781319 0.0
2.29463843780282 0.308358158429197 0.0
8.10536156219338 1.691641841570632 0.0
4.041916759198581 0.7211683801597477 0.0
1.324377365289917 0.710525897087282 0.0
9.023167917315867 1.292262965009952 0.0
2.044244009166302 1.693807225416931 0.0
0.7675765545556328 0.8969765944392112 0.0
2.86965991063896 0.7069213925303978 0.0
6.330340089355722 1.293078607468788 0.0
7.530340089355831 1.29307860746885 0.0
2.509347777214458 1.27231292939881 0.0
7.890652222779963 0.7276870706009825 0.0
6.690652222780154 0.7276870706013264 0.0
4.380959112578968 1.65866292149053 0.0
0.3278422400819535 1.233362752678148 0.0
5.754468991464942 0.3469215055361071 0.0
9.69195804401614 0.7000195364707393 0.0
9.691250997975434 1.303243780084337 0.0
5.54324561063747 1.237401556904767 0.0
9.044596057577811 0.6843248705785732 0.0
5.208929198448351 0.3519433027337513 0.0
3.708880196230617 1.249762029554333 0.0
1.713349558540635 1.234899745098077 0.0
4.586522821995393 0.9261740906803194 0.0
5.241145838821565 0.7007005766013242 0.0
1.434457446926135 1.701926055218157 0.0
0.2821921707428039 0.3393165318407161 0.0
3.42846431357046 1.714274134409306 0.0
5.26283485467567 1.710141275531951 0.0
3.966530105129177 1.718376080180638 0.0
4.891301048299285 1.259923533724591 0.0
0.2787500712946937 0.6906723798523376 0.0
1.822166578929051 0.7301892210727335 0.0
8.593276160688786 1.287322908694633 0.0
2.386017956680413 0.7288816957021155 0.0
3.576911792171353 0.7225526638483954 0.0
8.013982043315597 1.271118304297217 0.0
6.82303669320588 1.277631295759485 0.0
2.891837633696712 1.215141906356511 0.0
8.708162366297856 0.7848580936429009 0.0
7.496736072543097 0.7897651325976158 0.0
6.296736072542775 0.7897651325982009 0.0
5.523181420933933 0.7588744249744506 0.0
4.725538117155759 0.6529070682798582 0.0
2.736307197014292 0.273961667653487 0.0
7.663692802980817 1.726038332346062 0.0
6.446842959287713 1.783714797320288 0.0
1.126188383272983 1.743715177525389 0.0
2.64757240694847 1.787239829472812 0.0
6.546646507559373 0.2589894635657943 0.0
7.746646507561152 0.2589894635657218 0.0
4.079302268890254 1.221431431691139 0.0
4.433746883463333 0.2983726043497702 0.0
1.032697650548726 1.318076986199429 0.0
1.309492735411376 1.208980965369829 0.0
3.896105387998365 0.2579746081881307 0.0
9.378751775005455 1.725996478164223 0.0
9.3965279828929 0.2649862374471925 0.0
1.515757555362918 0.2603060454608533 0.0
4.959097093232828 1.726144293543605 0.0
4.912501341257775 0.2529154558175828 0.0
4.342421824442713 1.285376618065631 0.0
7.023506283123107 0.293611963231815 0.0
8.215829626877609 0.2682061590942965 0.0
5.28145265730745 1.291130016052329 0.0
8.693992162747364 1.744100892812201 0.0
0.6256567126095668 1.775064851453201 0.0
0.2724967459749605 1.756941612685287 0.0
8.90781713264278 0.2741674349222226 0.0
7.184202236567151 1.709454269177068 0.0
3.212962614055919 0.2641656831057426 0.0
0.6761590188374282 0.6746441670621973 0.0
1.020489328989316 0.2487299689497893 0.0
1.485017749467193 1.402133856149482 0.0
6.734223224917944 1.790518105434539 0.0
2.657549589911705 0.7636227781082678 0.0
6.542590471647475 1.237213715285722 0.0
7.742745187066703 1.235538225115726 0.0
0.5794341726414672 0.2480285055479751 0.0
1.842901067642841 1.760146518280044 0.0
3.84389577648662 0.7524680119172447 0.0
3.061589173628368 1.407936939342627 0.0
6.144447294584154 0.5911674363009913 0.0
7.344447294585433 0.5911674362995804 0.0
8.544447294586682 0.5911674362982269 0.0
5.491507940982565 0.1734458797927824 0.0
[...]
<PointData Vectors="fields">
<DataArray type="Float64" Name="U" NumberOfComponents="3" format="ascii">
0.0 0.0 0.0
0.03407970742446592 0.0 0.0
0.0026683707732367695 -0.006209303825839374 0.0
0.016991219852191396 -0.05467685584241097 0.0
0.03107885094027382 -0.005843409833718234 0.0
0.000347088560954556 -0.006455072667029169 0.0
0.001045406651609187 -0.010620456758633998 0.0
0.0016751066096885262 -0.014305340285677159 0.0
0.0022041680947665543 -0.017549518304393344 0.0
0.0026681287225597127 -0.02064583616526967 0.0
0.003115908127991023 -0.023621219225586448 0.0
0.0035662485416379486 -0.02648611260839927 0.0
0.004060410431563507 -0.029255397916712955 0.0
0.004570724465705954 -0.03193052505891664 0.0
0.005121947126372087 -0.03448337183395942 0.0
0.005701043696156868 -0.036913218258718544 0.0
0.006332937689446894 -0.039221798758698585 0.0
0.006977373153077036 -0.04139035355339789 0.0
0.007688379282715286 -0.04341876321967796 0.0
0.008398789404952178 -0.0452985562355163 0.0
0.009167567218067989 -0.047021690852532765 0.0
0.009939624958660822 -0.048573937244717084 0.0
0.01075160679380101 -0.04996615336366494 0.0
0.011569171588997555 -0.05115377252380508 0.0
0.012395199382236924 -0.052220478277569295 0.0
0.013254162582065613 -0.05308393320736936 0.0
0.014103797369148581 -0.05375888454297422 0.0
0.014979381898657397 -0.05425699080460982 0.0
0.015842109718809946 -0.0545580038009631 0.0
0.016742714509739985 -0.05467940778376096 0.0
0.017621418616448014 -0.05461126037107348 0.0
0.018504126076466315 -0.05434862150707501 0.0
0.01938812090247224 -0.053899191535261626 0.0
0.02026692428575266 -0.05325602958005296 0.0
0.021128024438944546 -0.05243317834546336 0.0
0.02201173546252644 -0.05143714883599512 0.0
0.022850593652087154 -0.05021116092815558 0.0
0.023690523180811007 -0.04886720294502763 0.0
0.024488987385819515 -0.047345533277314944 0.0
0.02527927434802367 -0.045632214490222915 0.0
0.02601870017196633 -0.043763700860604146 0.0
0.02672643505142746 -0.041748974491965116 0.0
0.02737939659883756 -0.03955494734232637 0.0
0.02801647354207225 -0.03727286265587249 0.0
0.028603296484597203 -0.03485284671978703 0.0
0.029166740806031353 -0.032299004903967594 0.0
0.029683526931320578 -0.029622597459320173 0.0
0.030176571455514913 -0.026852222991895644 0.0
0.03062568680593722 -0.0239785252322331 0.0
0.031083115848654294 -0.020997140531921487 0.0
0.03153108359715245 -0.01791102004928189 0.0
0.03202889290564808 -0.014655217828061732 0.0
0.0325818631101716 -0.011127724911097184 0.0
0.033436521831621144 -0.0069363332533270965 0.0
0.028800465728678948 -0.0024504042357461593 0.0
0.025367570328430518 -0.003796289727511525 0.0
0.022248295018050514 -0.0046503546227296775 0.0
0.019379389404500534 -0.005294486033399798 0.0
0.016594786554871642 -0.005699375178400849 0.0
0.013859721540902242 -0.0059632277798413935 0.0
0.011127168354688992 -0.006122643837406763 0.0
0.008354852436101573 -0.006194161304446452 0.0
0.0055340592736786015 -0.006209072943486505 0.0
0.0026663456539755804 -0.0090854459687908 0.0
0.002674447782090998 -0.011998109624370597 0.0
0.002727648832126263 -0.014954793441147632 0.0
0.0028497806652398082 -0.017941278472121867 0.0
0.0030518427419049345 -0.020916492219555778 0.0
0.003326910728600141 -0.02384253201464946 0.0
0.003679052225418898 -0.02673093324337931 0.0
0.004094528534950566 -0.029520058500544608 0.0
0.004574849337053035 -0.03220785678323554 0.0
0.005124805596739354 -0.034789634703757344 0.0
0.005701298027823306 -0.037237808162301114 0.0
0.006348755388089524 -0.03955652520664998 0.0
0.007002292970544962 -0.04173153265719645 0.0
0.007716001780727476 -0.04375503978950968 0.0
0.00845030403981888 -0.0456278971792657 0.0
0.009215376222361425 -0.04733636012454358 0.0
0.009990653039383977 -0.04883921286708483 0.0
0.010811281732798297 -0.05024184007177354 0.0
0.011655498712679409 -0.05142248575822066 0.0
0.01249826269880856 -0.052429245337286955 0.0
0.013380404015233917 -0.053262067029433355 0.0
0.014290872259383691 -0.053898234961231355 0.0
0.015170171786860418 -0.05434557336245078 0.0
0.016088338245507695 -0.05460770015948283 0.0
0.017910814363180337 -0.0545419620607772 0.0
0.018786443947972114 -0.054237633124507405 0.0
0.01964989953587035 -0.05374984661915453 0.0
0.020528143502509977 -0.05308726488642341 0.0
0.021393032225635565 -0.052216906561222756 0.0
0.022250940727784413 -0.05117021071824329 0.0
0.02305071594778753 -0.0499567109259268 0.0
0.02385707560983467 -0.0485673653178091 0.0
0.024634592558667727 -0.047017652124655376 0.0
0.02539840914464966 -0.04529823595713427 0.0
0.026108782544925546 -0.04338469409770041 0.0
0.02680983193838768 -0.0413806594227124 0.0
0.027458183473373816 -0.039195515720400184 0.0
0.028065782994394734 -0.03687336792831951 0.0
0.028651888799067105 -0.03442032885192864 0.0
0.029182609292814306 -0.03184340985704608 0.0
0.029647668919029133 -0.0291611626481492 0.0
0.030075691614521716 -0.026367532243380863 0.0
0.030423394590596568 -0.023493959746677263 0.0
0.0307020811380231 -0.02054958180672157 0.0
0.030896057695551028 -0.017577320577069136 0.0
0.031012308922518255 -0.0145902309445992 0.0
0.031069554783019374 -0.011634430671270485 0.0
0.03108321815232144 -0.008716506112974346 0.0
0.02821293223194795 -0.005844826394066251 0.0
0.02539189850923996 -0.005830153784648102 0.0
0.022624623657145383 -0.005762596589983684 0.0
0.01988709362898477 -0.005607796509487748 0.0
0.017158301215204504 -0.00532307128924517 0.0
0.014376717819892481 -0.004920720381667479 0.0
0.01150772467509122 -0.004279239198580848 0.0
0.008411014336068418 -0.003393885434289524 0.0
0.00474198242086431 -0.0019176413496663621 0.0
0.01653883889320924 -0.028007968166692022 0.0
0.016538441453154872 -0.042626585961332356 0.0
0.01691554088920261 -0.05205506890988604 0.0
0.016911865464794083 -0.02230415781052693 0.0
0.016599147238061773 -0.038542290396010995 0.0
0.016698363307986214 -0.049852324757552885 0.0
0.016852875273503896 -0.054898605968129496 0.0
0.0198519094274094 -0.017025073754536938 0.0
0.01730106621985586 -0.05465308692072838 0.0
0.013268524052128023 -0.03593342040389401 0.0
0.01458940905111587 -0.04804853846648431 0.0
0.012879698663077857 -0.031088186154093055 0.0
0.014113168231226863 -0.044904418032023975 0.0
0.015751465301181173 -0.05326470506547909 0.0
0.01938560536612497 -0.04787999056660942 0.0
0.020469298908449014 -0.03612676119139032 0.0
0.01820712096659506 -0.05309492878848455 0.0
0.020010389871517115 -0.044945398428817965 0.0
0.02132023812582151 -0.031062111874080763 0.0
0.015945825636629107 -0.05418219739187667 0.0
0.012309404205449655 -0.020448786400140667 0.0
0.0219603032168074 -0.014997153707598153 0.0
0.011407769163028325 -0.015187682772640498 0.0
0.016750655692105054 -0.05498391616694284 0.0
0.023035394883048427 -0.02431494880176001 0.0
0.01868142608673501 -0.05313260936570101 0.0
0.016751075944785806 -0.05497324956770382 0.0
0.010817577115281894 -0.029807467632665393 0.0
0.012141112103262321 -0.041400509523078985 0.0
0.01427429325923531 -0.05129008390844126 0.0
0.009882108659192238 -0.024476810726153965 0.0
0.011531811396402044 -0.037200888100188394 0.0
0.013489405227403514 -0.04890396364881401 0.0
0.021193564909147113 -0.043616436067346054 0.0
0.019659699509596375 -0.05050422701755507 0.0
0.021767211409032663 -0.03975792521991502 0.0
0.02336279481288823 -0.02432590975225419 0.0
0.010173579305697634 -0.01274129297724786 0.0
0.017806022317893033 -0.05454149981389576 0.0
0.023626811482598573 -0.03043993774611438 0.0
0.024686588002989365 -0.012323423468825197 0.0
0.015527704301513996 -0.05431023688032037 0.0
0.020192758832921834 -0.05062640446839706 0.0
0.016325160752266636 -0.011868977582898187 0.0
0.01664540684273877 -0.011959428217808356 0.0
0.016830247021460777 -0.05506546949759178 0.0
0.013553562132686756 -0.05161036318772983 0.0
0.011161571964282994 -0.041729147884809525 0.0
0.011967384748503663 -0.04534195030947624 0.0
0.022987750458111685 -0.03962343661777279 0.0
0.023646334040604206 -0.03527215193020154 0.0
0.02125240789832173 -0.047736989097683875 0.0
0.016843543268160517 -0.0226493830815126 0.0
0.025218174168783553 -0.01896947228170768 0.0
0.016851454771021353 -0.05370405886323721 0.0
0.016964978163823866 -0.04648254049672216 0.0
0.01691435779452595 -0.05240240159786335 0.0
0.01695470789879947 -0.03344847749347065 0.0
0.016990700081837888 -0.04319589744289837 0.0
0.01672338700534576 -0.028395594393009507 0.0
0.01698383786764114 -0.03843272788917239 0.0
0.016835695604998584 -0.0337843919111 0.0
0.016852723182984624 -0.04684341637303649 0.0
0.016885133122998667 -0.04965100022666736 0.0
0.01687370510713063 -0.05398885800934339 0.0
0.01771652621207624 -0.05470974248156036 0.0
0.014331885275447218 -0.052909223066420215 0.0
0.008470219629807386 -0.02497891906971776 0.0
0.007837608827961105 -0.019171395417410985 0.0
0.026054536504705496 -0.019280663222020888 0.0
0.015783162217107287 -0.05457127256860291 0.0
0.026381319428869753 -0.010629138811330534 0.0
0.007413849968322766 -0.010889403516203357 0.0
0.009066363811236839 -0.033825417661035376 0.0
0.012569540155169505 -0.049244628030553725 0.0
0.008660004562308917 -0.029086354795850963 0.0
0.011598054905862196 -0.0460678085693232 0.0
0.022088934191456997 -0.04660020147101349 0.0
0.019824407975299094 -0.05233058917261388 0.0
0.023040409350229874 -0.04340463027037182 0.0
0.025294513424797126 -0.028892779004436434 0.0
0.017600884025468368 -0.01739209471346316 0.0
0.014335432092423028 -0.053155987506904374 0.0
0.007417293426438074 -0.01772086318702698 0.0
0.009471527841110492 -0.03817113331395232 0.0
0.008683838029486381 -0.033575830289441506 0.0
0.015711737697170672 -0.05277209107140371 0.0
0.013204002035058757 -0.025538273548078878 0.0
0.012795928340278921 -0.020667904561052088 0.0
0.02483208869750335 -0.035116580303795615 0.0
0.015732941657409516 -0.017085882599063358 0.0
0.01433727566617272 -0.044392780260770266 0.0
0.015217643116787761 -0.05103040917547398 0.0
0.013931834616706325 -0.04061246600460108 0.0
0.019595338227413765 -0.040675820702745516 0.0
0.019876670806322397 -0.03642576336069276 0.0
0.018768298597582143 -0.04853585390260437 0.0
0.01874354792235831 -0.05392959946720706 0.0
0.02037801265611994 -0.010373622063482482 0.0
0.018908166497105815 -0.05364738050950262 0.0
0.020696150016312854 -0.00989136975182956 0.0
0.012428830350266172 -0.010508151888040647 0.0
0.016319769738986488 -0.05442158953833311 0.0
0.0209917612745768 -0.02038558473904 0.0
0.017362446528601815 -0.05483954659504144 0.0
0.01827717225177882 -0.05099509428595625 0.0
0.019771748798220704 -0.03092113782893706 0.0
0.016734441501935534 -0.05461007265379214 0.0
0.017124707225047105 -0.05494132405549495 0.0
0.025949030610656818 -0.026951956045793368 0.0
0.007512066593268101 -0.008551940436076199 0.0
0.021720340795244156 -0.048953032935853694 0.0
0.01612150881176212 -0.05475546061058911 0.0
0.020179146312709423 -0.052255366163444304 0.0
0.017019212453481165 -0.05499769217057482 0.0
0.012919189174845313 -0.009026852928595315 0.0
0.013702025265034362 -0.032403582275451766 0.0
0.013126591978580857 -0.027003950117608266 0.0
0.014105112705447134 -0.039317824489398176 0.0
0.015208134903896917 -0.05014937085531047 0.0
0.013756534285156356 -0.03485486962565703 0.0
0.014772492926587511 -0.047462021409698726 0.0
0.018750218145616872 -0.04459736509231046 0.0
0.01957267927684793 -0.025418716496241413 0.0
0.018937812975416805 -0.040987419722457584 0.0
0.017990175394398192 -0.05123347479580177 0.0
0.017360727874937414 -0.05446748136128464 0.0
0.016409524146203256 -0.05481288293723483 0.0
0.010137949903387797 -0.04293888673483151 0.0
0.009196668955039016 -0.038970002151781126 0.0
0.012023310047795025 -0.050066184487878244 0.0
0.02690733673700419 -0.022474157925196796 0.0
0.024478273592172813 -0.04198558331963521 0.0
0.021696477107976272 -0.049422406347387066 0.0
0.024899248216368422 -0.03802935581161533 0.0
0.01777899140031172 -0.052937648535039815 0.0
0.015059908260118195 -0.054055288351912686 0.0
0.021263818294215517 -0.02114132207004378 0.0
0.019681446506479062 -0.025253258687569217 0.0
0.013276912472933337 -0.05187614948258779 0.0
0.006684995354367696 -0.015284684821828801 0.0
0.027480695464556646 -0.014769958385043623 0.0
0.007390934276666941 -0.0282090688989 0.0
0.017087532914055088 -0.05486626112262196 0.0
0.016483477442853837 -0.05482647509464058 0.0
0.017721578643574463 -0.05393324652405957 0.0
0.022775085234363477 -0.04559114963878945 0.0
0.025759917036746 -0.032198286996397055 0.0
0.016533390563816187 -0.05488897787529724 0.0
0.0070590807650348485 -0.025457005475907474 0.0
0.027746209193811287 -0.014988867314729898 0.0
0.027590858626792267 -0.009758227321246994 0.0
0.026808276603080897 -0.022471271042951456 0.0
0.010507835008275814 -0.04406858339941981 0.0
0.011320039587416142 -0.04728592816758521 0.0
0.012631723528753663 -0.015611861609504245 0.0
0.006466333858515718 -0.02102882579195782 0.0
0.022019242290885883 -0.027728018999055144 0.0
0.011070885681597274 -0.04797623357674298 0.0
0.014654956491104685 -0.042274213856450076 0.0
0.015322075605784906 -0.04963007754821381 0.0
0.014344232353133084 -0.03818535288479914 0.0
0.005985625487415854 -0.013974248938400546 0.0
0.02602281877605623 -0.032504416691391154 0.0
0.015641831186146135 -0.051765994735506804 0.0
0.020175456379084977 -0.0461127346883397 0.0
0.018802119069019997 -0.05204222490757402 0.0
0.02070269723539862 -0.04257078832179733 0.0
0.0220334427781085 -0.027770564066125686 0.0
0.018529249278070793 -0.05429610227879821 0.0
0.014146777920022063 -0.028911455683423126 0.0
0.02349940677344469 -0.044824847322785896 0.0
0.024456224459726755 -0.04132493024041051 0.0
0.020916492845848417 -0.051287499842454995 0.0
0.023409874449585942 -0.01579058550223382 0.0
0.014092248875536352 -0.015150676231142579 0.0
0.014688733625504947 -0.053800403072351316 0.0
0.01888726862348129 -0.051890064764130404 0.0
0.00886551484787023 -0.04052685234961958 0.0
0.007894564486809112 -0.03623167596291036 0.0
0.01827040467006437 -0.05378502108290624 0.0
0.013706746337911732 -0.024345231092448554 0.0
0.022870831737909318 -0.03406897932340955 0.0
0.019317138197917954 -0.013696924976706323 0.0
0.019744030521668843 -0.053191985521326195 0.0
0.0238929598715506 -0.0080738747168659 0.0
0.012399916806096947 -0.05049852549464178 0.0
0.007331606195923866 -0.03133874674307836 0.0
0.01795195648102613 -0.0544032763366613 0.0
0.013213124817354061 -0.052235357205098865 0.0
0.01937127418172493 -0.049782613288329856 0.0
0.02551234058897364 -0.037952107975347746 0.0
0.016844212281812578 -0.055063815278043084 0.0
0.01748540994479287 -0.009000387694423 0.0
0.015717226898033412 -0.05402061863373838 0.0
0.016505515919530603 -0.05326070394433606 0.0
0.015685507450891385 -0.031124799673637134 0.0
0.016028428058843282 -0.04492055876362905 0.0
0.015858881287491498 -0.035944719607997146 0.0
0.01618755065037601 -0.048045695574134656 0.0
0.00620765255358062 -0.021795194486750026 0.0
0.017869468002610085 -0.008657336523027491 0.0
0.021257033089187076 -0.050950571594179046 0.0
0.01685409097045299 -0.055057029847886796 0.0
0.016386131325651317 -0.05487687180259454 0.0
0.01336132043115458 -0.011960172406852113 0.0
0.027523673133830105 -0.02548584380165161 0.0
0.02141721032795939 -0.03402123109389418 0.0
0.021451969557146695 -0.038315813686762276 0.0
0.01989989986965238 -0.04695570750446034 0.0
0.013229781098225939 -0.042891797313806136 0.0
0.013783385366489282 -0.04634976936702063 0.0
0.015073561829528693 -0.052317403787175885 0.0
0.007672122173419975 -0.03596599201528552 0.0
0.006835789556711727 -0.03113935131135785 0.0
0.014037940789619022 -0.05035379249263863 0.0
0.012044401933872087 -0.03957101158323742 0.0
0.01266024196848043 -0.043480420852314385 0.0
0.019519524660581856 -0.03356649335546534 0.0
0.018903895346011276 -0.014276353503640662 0.0
0.009907331789408903 -0.008957114046279331 0.0
0.023346967553458775 -0.007716815785481652 0.0
0.0177355646520646 -0.04801015874975429 0.0
0.01819919663445018 -0.03614381827329304 0.0
0.017319805502295078 -0.05316876806195084 0.0
0.017901063195431395 -0.04485950329823295 0.0
0.018292979135392448 -0.030898219166429076 0.0
0.026264171591279452 -0.02984015158581131 0.0
0.010189299184399843 -0.006894772803474651 0.0
0.02146829745172119 -0.04172596076098331 0.0
0.02000214640428458 -0.04923909292796215 0.0
0.022006889587951595 -0.037611596656032954 0.0
0.015909394889559086 -0.040605052654011736 0.0
0.016229177784022754 -0.04849287994341793 0.0
0.01575457715423415 -0.03626967348373779 0.0
0.018513792450074094 -0.054310289446507426 0.0
0.016341646875002707 -0.05100096948936863 0.0
0.011917370593334958 -0.037893049916446854 0.0
0.011378604883674837 -0.03325624224299002 0.0
0.019874930812357326 -0.053009778112723574 0.0
0.017378045286223533 -0.05481842047804108 0.0
0.014208928354473828 -0.022879229829134123 0.0
0.015807420788588 -0.025251478755664743 0.0
0.015467354824208492 -0.01958394901832414 0.0
0.014897131860028376 -0.05264943542473823 0.0
0.01587665746609929 -0.030852448670873188 0.0
0.008834599202246631 -0.04078175074736721 0.0
0.009911046983466605 -0.04450654609264848 0.0
0.016961119027303496 -0.054849773497551005 0.0
0.025618455860249002 -0.03580524277805775 0.0
0.022444676878828562 -0.048031488648235095 0.0
0.013055954638769747 -0.0478110940518713 0.0
0.012340935458228964 -0.044583838198091134 0.0
0.010851445780032389 -0.026092613093317656 0.0
0.028488738286725553 -0.007073048842377887 0.0
0.005689940896355708 -0.009235371079024512 0.0
0.01789594326484316 -0.01932857064904707 0.0
0.0175432554048837 -0.05397010888693397 0.0
0.0165500246500374 -0.053007852653434176 0.0
0.016175092615104903 -0.0536262944784498 0.0
0.014849998746996867 -0.008917152467694093 0.0
0.015225377273333278 -0.05433808924190109 0.0
0.027899573058616654 -0.019393569002726714 0.0
0.016006158877120973 -0.025346653932175174 0.0
0.022311665935558077 -0.013224681933259439 0.0
0.01537691372689852 -0.053414738676423656 0.0
0.01633214632837059 -0.04465943759053403 0.0
0.016468519566730268 -0.05130411981870917 0.0
0.016169777385010624 -0.04108634525286357 0.0
0.010984595839452443 -0.023282588194946018 0.0
0.011188882444281316 -0.03244225518533621 0.0
0.010706613418497084 -0.027246640944668655 0.0
0.013992802038241554 -0.050122806218997985 0.0
0.013235500063223212 -0.04738508174815088 0.0
0.01715838887979039 -0.05432496432453028 0.0
0.01349901437116528 -0.052768496387664926 0.0
0.023421759576813188 -0.021770375432987935 0.0
0.023653755140154692 -0.031075964847868662 0.0
0.021611904819607616 -0.04491023303396195 0.0
0.016339972244172087 -0.05398377126208625 0.0
0.01888722038984323 -0.05316562485404808 0.0
0.005621217374456586 -0.025509859377000472 0.0
0.010203655329954604 -0.021268408186260003 0.0
0.010726028180237174 -0.01827813938383858 0.0
0.019610482117300702 -0.02797383462297478 0.0
0.01865103222006804 -0.04620597457546097 0.0
0.01896788788071165 -0.04281729383893525 0.0
0.017902714443532457 -0.05218201307201631 0.0
0.020895598749195114 -0.04820610695075918 0.0
0.015360948661101968 -0.04639454855227247 0.0
0.015991760920958827 -0.052336977604430776 0.0
0.015077487027625593 -0.04299390121404516 0.0
0.027752880644869637 -0.012291771346653914 0.0
0.0167683454857099 -0.05456299626543108 0.0
0.019674477039526954 -0.0427917890365706 0.0
0.019874930344659553 -0.039167516790886564 0.0
0.018614316682838646 -0.05019874324360733 0.0
0.01817578100166305 -0.04951853688042805 0.0
0.012333256976766738 -0.05105774702695944 0.0
0.017136586140796328 -0.05494465096322182 0.0
0.01847204917346442 -0.046649682839481996 0.0
0.0192373420361569 -0.033519974897267574 0.0
0.01916338765934536 -0.022564258763515636 0.0
0.022625834243965963 -0.04761247028579965 0.0
0.010388037316744415 -0.012396043184054536 0.0
0.022900395275944802 -0.011750599259765885 0.0
0.02502254463827956 -0.040262132010583346 0.0
0.009360674949685288 -0.020524503285356904 0.0
0.015567953670094382 -0.054267140167017724 0.0
0.02318369084397533 -0.017888146081052242 0.0
0.022519703173743452 -0.018258215300926313 0.0
0.01783291558986428 -0.05206925926544011 0.0