<VTKFile type="UnstructuredGrid"  version="0.1">
<UnstructuredGrid>
<Piece NumberOfPoints="713" NumberOfCells="1304">
<Points>
<DataArray type="Float64" NumberOfComponents="3" format="ascii">
0.0 0.0 0.0
10.0 0.0 0.0
10.0 2.0 0.0
5.0 2.0 0.0
0.0 2.0 0.0
0.199999999999856 0.0 0.0
0.3999999999996677 0.0 0.0
0.5999999999994683 0.0 0.0
0.7999999999993286 0.0 0.0
0.9999999999991888 0.0 0.0
1.199999999999033 0.0 0.0
1.399999999998576 0.0 0.0
1.599999999997992 0.0 0.0
1.799999999997408 0.0 0.0
1.999999999996825 0.0 0.0
2.199999999996241 0.0 0.0
2.399999999995657 0.0 0.0
2.599999999995073 0.0 0.0
2.79999999999449 0.0 0.0
2.999999999993906 0.0 0.0
3.199999999993322 0.0 0.0
3.399999999992738 0.0 0.0
3.599999999992154 0.0 0.0
3.799999999991571 0.0 0.0
3.999999999991022 0.0 0.0
4.199999999991187 0.0 0.0
4.399999999991491 0.0 0.0
4.599999999991795 0.0 0.0
4.799999999992099 0.0 0.0
4.999999999992403 0.0 0.0
5.199999999992706 0.0 0.0
5.39999999999301 0.0 0.0
5.599999999993313 0.0 0.0
5.799999999993618 0.0 0.0
5.999999999993922 0.0 0.0
6.199999999994227 0.0 0.0
6.39999999999453 0.0 0.0
6.599999999994833 0.0 0.0
6.799999999995138 0.0 0.0
6.999999999995442 0.0 0.0
7.199999999995747 0.0 0.0
7.39999999999605 0.0 0.0
7.599999999996353 0.0 0.0
7.799999999996658 0.0 0.0
7.999999999996962 0.0 0.0
8.199999999997265 0.0 0.0
8.399999999997569 0.0 0.0
8.599999999997873 0.0 0.0
8.799999999998176 0.0 0.0
8.99999999999848 0.0 0.0
9.199999999998786 0.0 0.0
9.399999999999089 0.0 0.0
9.599999999999392 0.0 0.0
9.799999999999697 0.0 0.0
10.0 0.1999999999996293 0.0
10.0 0.3999999999991157 0.0
10.0 0.5999999999985328 0.0
10.0 0.7999999999979498 0.0
10.0 0.9999999999973885 0.0
10.0 1.199999999997894 0.0
10.0 1.39999999999842 0.0
10.0 1.599999999998947 0.0
10.0 1.799999999999474 0.0
9.799999999999999 2.0 0.0
9.6 2.0 0.0
9.399999999999999 2.0 0.0
9.2 2.0 0.0
8.999999999999998 2.0 0.0
8.799999999999999 2.0 0.0
8.599999999999998 2.0 0.0
8.399999999999999 2.0 0.0
8.2 2.0 0.0
7.999999999999998 2.0 0.0
7.799999999999999 2.0 0.0
7.599999999999999 2.0 0.0
7.399999999999999 2.0 0.0
7.199999999999999 2.0 0.0
7.0 2.0 0.0
6.799999999999999 2.0 0.0
6.6 2.0 0.0
6.399999999999999 2.0 0.0
6.199999999999999 2.0 0.0
5.999999999999999 2.0 0.0
5.8 2.0 0.0
5.6 2.0 0.0
5.399999999999999 2.0 0.0
5.199999999999999 2.0 0.0
4.8 2.0 0.0
4.6 2.0 0.0
4.399999999999999 2.0 0.0
4.199999999999998 2.0 0.0
3.999999999999999 2.0 0.0
3.799999999999999 2.0 0.0
3.599999999999999 2.0 0.0
3.399999999999999 2.0 0.0
3.199999999999998 2.0 0.0
2.999999999999999 2.0 0.0
2.799999999999999 2.0 0.0
2.599999999999999 2.0 0.0
2.399999999999999 2.0 0.0
2.199999999999999 2.0 0.0
2.0 2.0 0.0
1.799999999999999 2.0 0.0
1.599999999999999 2.0 0.0
1.399999999999999 2.0 0.0
1.199999999999999 2.0 0.0
0.9999999999999991 2.0 0.0
0.7999999999999998 2.0 0.0
0.5999999999999996 2.0 0.0
0.3999999999999995 2.0 0.0
0.1999999999999993 2.0 0.0
0.0 1.799999999999167 0.0
0.0 1.6 0.0
0.0 1.400000000001387 0.0
0.0 1.200000000002774 0.0
0.0 1.000000000004117 0.0
0.0 0.8000000000033287 0.0
0.0 0.6000000000024965 0.0
0.0 0.4000000000016644 0.0
0.0 0.200000000000832 0.0
1.499207686858938 0.9671416246672391 0.0
2.690335006295381 0.9619521672166851 0.0
3.892537609238439 1.007271393615351 0.0
8.916602958236062 0.9848120741100651 0.0
7.714518201951718 1.024234589865042 0.0
6.514518201951581 1.024234589865268 0.0
5.299999999999998 1.000000000000349 0.0
0.7620577975594133 1.201991596673393 0.0
4.61755859746166 1.240410629378135 0.0
2.099999999996533 0.6749999999988996 0.0
3.289480163184942 0.6802242156869155 0.0
8.299999999999976 1.325000000000064 0.0
7.110519836808121 1.319775784312006 0.0
5.893184537067197 1.292851873188582 0.0
3.268568008578649 1.341967835735878 0.0
2.118368267083699 1.321829331075689 0.0
5.930896443153832 0.6493414313150682 0.0
7.106926174231782 0.6329785805444448 0.0
8.306926174233002 0.6329785805444098 0.0
4.427960725065653 0.6389803625370323 0.0
0.9828791719046732 0.6520555711814596 0.0
9.383333333333349 0.6166666666667164 0.0
9.383333333333326 1.383333333333367 0.0
4.974443803660211 0.5526668589022862 0.0
1.248084267804327 1.464555585366204 0.0
4.139486343919472 1.468449088519687 0.0
5.077806736162063 1.478342020848787 0.0
1.629462398503482 0.5098631373669138 0.0
2.579462070540726 0.5133714280880515 0.0
3.770778974032556 0.5099482598296803 0.0
8.764748922637567 1.526880805960684 0.0
7.820537929455645 1.486628571911716 0.0
6.632254923791462 1.492045881343967 0.0
2.796478414430566 1.477149214423874 0.0
6.403521585563812 0.5228507855762514 0.0
7.603521585564883 0.5228507855756581 0.0
8.783559188644787 0.5066440811355862 0.0
0.5060338924245764 0.5082251307884346 0.0
5.451633334958382 0.4799315318847731 0.0
1.683269995544083 1.547372422998862 0.0
0.448590368789599 1.551409631210402 0.0
5.545526974704655 1.582008455135239 0.0
3.666056976948354 1.56999765613834 0.0
0.4385739326402744 0.9352922270094057 0.0
9.58170539854767 0.9922137522194456 0.0
4.93200119575972 0.9247090920592975 0.0
6.20679636316332 1.642443126922768 0.0
7.418963044745086 1.587405313446662 0.0
2.98103695524982 0.412594686552066 0.0
2.420975602092416 1.592770352831584 0.0
7.97902439790374 0.4072296471687943 0.0
6.779024397902082 0.4072296471687297 0.0
1.130444757308209 0.9859238872709168 0.0
0.8901814758011342 1.60566856081121 0.0
4.263670373274499 0.9915754392410991 0.0
3.096698167273431 1.009056907826855 0.0
6.088506433998166 0.9857489435828969 0.0
1.902225037409936 1.003483800311746 0.0
7.288506433998439 0.9857489435828686 0.0
8.498964973312972 1.005823551167602 0.0
2.307571737417198 1.008136792450924 0.0
8.100397971125554 1.000138280273345 0.0
6.900397971125225 1.000138280273792 0.0
3.499307350770321 0.9996496628144824 0.0
5.703656022566558 0.9885479657552226 0.0
4.719420624357892 1.622286409566126 0.0
4.099803549896894 0.3600308081356619 0.0
1.286100671532495 0.3637431910670685 0.0
9.120549139677793 1.655065205594329 0.0
9.11726214008418 0.3400668903113251 0.0
4.642568097328033 0.3514924793220939 0.0
9.630437629189052 0.3309104953729904 0.0
9.674493769554315 1.668196579944218 0.0
1.936458797611609 0.3337070483410596 0.0
3.461817573918652 0.3447876019040473 0.0
8.440152788772068 1.649667667046397 0.0
6.973083089482548 1.643748677366674 0.0
3.126874515006838 1.659115470008545 0.0
6.070607878384977 0.3410183041038941 0.0
7.255014454789089 0.32792256737713 0.0
8.462493615948901 0.3368393217476116 0.0
9.236261261261264 0.9276047786917867 0.0
5.885444386845415 1.667751020273455 0.0
0.8062340689595878 0.3261579034781319 0.0
2.29463843780282 0.308358158429197 0.0
8.10536156219338 1.691641841570632 0.0
4.041916759198581 0.7211683801597477 0.0
1.324377365289917 0.710525897087282 0.0
9.023167917315867 1.292262965009952 0.0
2.044244009166302 1.693807225416931 0.0
0.7675765545556328 0.8969765944392112 0.0
2.86965991063896 0.7069213925303978 0.0
6.330340089355722 1.293078607468788 0.0
7.530340089355831 1.29307860746885 0.0
2.509347777214458 1.27231292939881 0.0
7.890652222779963 0.7276870706009825 0.0
6.690652222780154 0.7276870706013264 0.0
4.380959112578968 1.65866292149053 0.0
0.3278422400819535 1.233362752678148 0.0
5.754468991464942 0.3469215055361071 0.0
9.69195804401614 0.7000195364707393 0.0
9.691250997975434 1.303243780084337 0.0
5.54324561063747 1.237401556904767 0.0
9.044596057577811 0.6843248705785732 0.0
5.208929198448351 0.3519433027337513 0.0
3.708880196230617 1.249762029554333 0.0
1.713349558540635 1.234899745098077 0.0
4.586522821995393 0.9261740906803194 0.0
5.241145838821565 0.7007005766013242 0.0
1.434457446926135 1.701926055218157 0.0
0.2821921707428039 0.3393165318407161 0.0
3.42846431357046 1.714274134409306 0.0
5.26283485467567 1.710141275531951 0.0
3.966530105129177 1.718376080180638 0.0
4.891301048299285 1.259923533724591 0.0
0.2787500712946937 0.6906723798523376 0.0
1.822166578929051 0.7301892210727335 0.0
8.593276160688786 1.287322908694633 0.0
2.386017956680413 0.7288816957021155 0.0
3.576911792171353 0.7225526638483954 0.0
8.013982043315597 1.271118304297217 0.0
6.82303669320588 1.277631295759485 0.0
2.891837633696712 1.215141906356511 0.0
8.708162366297856 0.7848580936429009 0.0
7.496736072543097 0.7897651325976158 0.0
6.296736072542775 0.7897651325982009 0.0
5.523181420933933 0.7588744249744506 0.0
4.725538117155759 0.6529070682798582 0.0
2.736307197014292 0.273961667653487 0.0
7.663692802980817 1.726038332346062 0.0
6.446842959287713 1.783714797320288 0.0
1.126188383272983 1.743715177525389 0.0
2.64757240694847 1.787239829472812 0.0
6.546646507559373 0.2589894635657943 0.0
7.746646507561152 0.2589894635657218 0.0
4.079302268890254 1.221431431691139 0.0
4.433746883463333 0.2983726043497702 0.0
1.032697650548726 1.318076986199429 0.0
1.309492735411376 1.208980965369829 0.0
3.896105387998365 0.2579746081881307 0.0
9.378751775005455 1.725996478164223 0.0
9.3965279828929 0.2649862374471925 0.0
1.515757555362918 0.2603060454608533 0.0
4.959097093232828 1.726144293543605 0.0
4.912501341257775 0.2529154558175828 0.0
4.342421824442713 1.285376618065631 0.0
7.023506283123107 0.293611963231815 0.0
8.215829626877609 0.2682061590942965 0.0
5.28145265730745 1.291130016052329 0.0
8.693992162747364 1.744100892812201 0.0
0.6256567126095668 1.775064851453201 0.0
0.2724967459749605 1.756941612685287 0.0
8.90781713264278 0.2741674349222226 0.0
7.184202236567151 1.709454269177068 0.0
3.212962614055919 0.2641656831057426 0.0
0.6761590188374282 0.6746441670621973 0.0
1.020489328989316 0.2487299689497893 0.0
1.485017749467193 1.402133856149482 0.0
6.734223224917944 1.790518105434539 0.0
2.657549589911705 0.7636227781082678 0.0
6.542590471647475 1.237213715285722 0.0
7.742745187066703 1.235538225115726 0.0
0.5794341726414672 0.2480285055479751 0.0
1.842901067642841 1.760146518280044 0.0
3.84389577648662 0.7524680119172447 0.0
3.061589173628368 1.407936939342627 0.0
6.144447294584154 0.5911674363009913 0.0
7.344447294585433 0.5911674362995804 0.0
8.544447294586682 0.5911674362982269 0.0
5.491507940982565 0.1734458797927824 0.0
[...]
<PointData Vectors="fields">
<DataArray type="Float64" Name="U" NumberOfComponents="3" format="ascii">
0.0 0.0 0.0
0.0312043981158086 0.0 0.0
0.0023288840909179735 -0.005779914028317248 0.0
0.015582415335558361 -0.05005645249731226 0.0
0.02845122510314243 -0.005360308126391064 0.0
0.00033476766433397686 -0.005912961960824185 0.0
0.0009751347554403471 -0.00972683806859626 0.0
0.0015531455015748213 -0.013112247040769413 0.0
0.0020393701770276863 -0.016088636516947995 0.0
0.0024683068732917423 -0.018930069588364427 0.0
0.002883446799834549 -0.02165845770663865 0.0
0.0033004143703139186 -0.024282572017177925 0.0
0.003757237438579497 -0.026817730263158885 0.0
0.004226468692329629 -0.02926555156539011 0.0
0.004730399195449986 -0.03159990528069863 0.0
0.005257170392059545 -0.03382086822236407 0.0
0.005829672282572616 -0.0359311701114191 0.0
0.006411572578298135 -0.03791325706396921 0.0
0.007054237352612288 -0.039767789033997455 0.0
0.0076968232685287645 -0.04148634569868533 0.0
0.008395677570596791 -0.04306223304478706 0.0
0.009101176963962098 -0.04448134351199348 0.0
0.009845388783454406 -0.04575380811737884 0.0
0.010595661784232541 -0.04683772119477717 0.0
0.011351572995368691 -0.04781208432698591 0.0
0.012132910959943075 -0.0485994501225876 0.0
0.012901197603185584 -0.049215634620166794 0.0
0.013689370623868238 -0.049671501014462174 0.0
0.014463226628249117 -0.049949072427506624 0.0
0.015270717560273345 -0.050066539596437684 0.0
0.016058239274583386 -0.050014259456387586 0.0
0.016849577389201006 -0.04978665616523461 0.0
0.017642549560689683 -0.049391425936424614 0.0
0.018430817053206615 -0.04882142483044775 0.0
0.019202612838795152 -0.04808856154738083 0.0
0.019995381098142962 -0.04719925105606144 0.0
0.02075019130307599 -0.04609768053014346 0.0
0.0215091779569624 -0.04488840312165269 0.0
0.022235400930702174 -0.04351480860620377 0.0
0.022963096035676887 -0.04196111327131542 0.0
0.02365080753947044 -0.040261597609339624 0.0
0.024314000900432356 -0.038425084736925255 0.0
0.024929515232479417 -0.03641840195163461 0.0
0.025529862554824593 -0.034331120590180474 0.0
0.026080970085743983 -0.03211422735427526 0.0
0.026608199975651475 -0.029772367026422497 0.0
0.027090342962772823 -0.02731519493592764 0.0
0.02755065644721654 -0.024770258675991162 0.0
0.027969678234036652 -0.022127419315999645 0.0
0.028397152048251995 -0.019382400350712335 0.0
0.028814923840059976 -0.016539310178590366 0.0
0.029278009677737433 -0.013536097437901174 0.0
0.029788445494681567 -0.010279035035742675 0.0
0.030577740891318896 -0.006413289271709091 0.0
0.026326670098753516 -0.0022624253659566354 0.0
0.023166013625028143 -0.003508045994192117 0.0
0.02029345485643971 -0.004306662300566321 0.0
0.017660731497811524 -0.004914990980339019 0.0
0.015107005509043259 -0.005298519299649342 0.0
0.012600903944679198 -0.005548365393434158 0.0
0.0100963753860766 -0.0056991595719804045 0.0
0.007552583860553698 -0.005766331527447558 0.0
0.004962133720820617 -0.005779736996795539 0.0
0.0023268994873953657 -0.008422757584812418 0.0
0.0023338494609606887 -0.011100252182783482 0.0
0.0023835680728051586 -0.013819940602019354 0.0
0.002498721960455908 -0.016568954646222774 0.0
0.0026896231231860177 -0.019307556922164414 0.0
0.00294930112145321 -0.02199893169465554 0.0
0.003279763088688116 -0.024655243158301584 0.0
0.0036668403048003987 -0.027216546910689317 0.0
0.004112654249041989 -0.02968191114528071 0.0
0.00462275616341065 -0.03204877901796612 0.0
0.005159290146142834 -0.03429042286126627 0.0
0.005766005134618384 -0.03641197230235593 0.0
0.006381511832640833 -0.03839881157087474 0.0
0.007055987697361583 -0.04024404630206104 0.0
0.007749695888325645 -0.04194775744235441 0.0
0.008470060330106412 -0.0434973369037683 0.0
0.009198020443266817 -0.044852940622995566 0.0
0.009965626290956719 -0.04611822821029911 0.0
0.010751247966413949 -0.04717711347826547 0.0
0.011531472240040221 -0.04807692531251449 0.0
0.012342048146773487 -0.04881870274990677 0.0
0.013171003533877707 -0.04938256752415568 0.0
0.013962648040273001 -0.04977581774363779 0.0
0.014782023920164214 -0.05000255232349049 0.0
0.01639611456132442 -0.049927158950663755 0.0
0.017171369426297378 -0.049647037677120566 0.0
0.01793959859572837 -0.04920114643262608 0.0
0.018728631284238816 -0.048597774804609466 0.0
0.01951584550319762 -0.047804359637401185 0.0
0.02030546393565886 -0.04684939084517228 0.0
0.021047876139527057 -0.045741451760495724 0.0
0.021799857222505055 -0.04447134723795597 0.0
0.02252507567468788 -0.043054604383878564 0.0
0.023233963798844362 -0.041482022323795775 0.0
0.023889253704628056 -0.039730222596029714 0.0
0.024532994869813092 -0.037898741678826106 0.0
0.025124136401764953 -0.03590084977249989 0.0
0.025677190145417673 -0.03377806076929528 0.0
0.0262107823651909 -0.03153573764615621 0.0
0.0266945785452423 -0.02918035365004743 0.0
0.027119615231471196 -0.026728129979899873 0.0
0.027513103156900528 -0.024171867219216745 0.0
0.02783473807861612 -0.021541152046770238 0.0
0.028095073236966753 -0.018842805451102243 0.0
0.028277890853605832 -0.016117580456456428 0.0
0.02838818954415711 -0.01337693381527094 0.0
0.02844248783388832 -0.01066627088634083 0.0
0.028455513742284437 -0.007991838729850438 0.0
0.025826441108802656 -0.005361699657868953 0.0
0.02324452246975764 -0.0053481668746828085 0.0
0.020714233746400888 -0.005284512938252039 0.0
0.018211625325951747 -0.005138473865178761 0.0
0.015717643955823 -0.004871389151720614 0.0
0.013172004422435987 -0.004496425177638977 0.0
0.010544123932066753 -0.003903245903275925 0.0
0.007703645150026349 -0.0030917360753548975 0.0
0.004334961123356123 -0.0017425776204711232 0.0
0.015158980688771502 -0.025706841461849927 0.0
0.015142918135825646 -0.0390866741740344 0.0
0.015467588298252755 -0.04772079587612247 0.0
0.015383114907738731 -0.020610904220836508 0.0
0.01511237286299945 -0.035540468175453824 0.0
0.015231517328264355 -0.04583589364714119 0.0
0.015402225523062587 -0.05033125948777133 0.0
0.018190406815448004 -0.015624132963753715 0.0
0.015814537595690216 -0.050075374894907085 0.0
0.01216837478693411 -0.032958874384843725 0.0
0.013353003466100436 -0.04405151499267181 0.0
0.011710635264055913 -0.028689565055884162 0.0
0.012877240562094069 -0.041349355897444345 0.0
0.014419789798052024 -0.0488879123377932 0.0
0.017729736378930754 -0.04389777220130451 0.0
0.018737357347749214 -0.03313156217328895 0.0
0.016592864767096427 -0.048733637871387 0.0
0.018200345670355392 -0.04138879326690523 0.0
0.019419402115170726 -0.028670196303377145 0.0
0.014584622354322242 -0.0496477268585707 0.0
0.011302872966013676 -0.018772367712361696 0.0
0.020001440752451555 -0.01386643058817869 0.0
0.010346914351909596 -0.014041768640013452 0.0
0.015297280341689166 -0.05038451921663119 0.0
0.021084151845458764 -0.022313463179237658 0.0
0.01705628339497071 -0.04868461029643765 0.0
0.015341782821333742 -0.050369547125305114 0.0
0.009936017715125318 -0.02734954061840197 0.0
0.011128780426856768 -0.0379548676482398 0.0
0.013066975261528972 -0.04700869692476619 0.0
0.008962498386110506 -0.022602799333303256 0.0
0.010490107746752571 -0.03429424531503729 0.0
0.012347065905720198 -0.04496567013613651 0.0
0.01939495465291658 -0.039982821735241196 0.0
0.017884857896310977 -0.046407065674119216 0.0
0.019811463633426535 -0.03664693242759669 0.0
0.021292260465834944 -0.022470935865566446 0.0
0.00934898065839875 -0.011686476961706795 0.0
0.01623671010264259 -0.050005526993241275 0.0
0.021619560550131665 -0.02792060714450469 0.0
0.02260221858648879 -0.01130093882711225 0.0
0.01425537711792568 -0.04979330507451013 0.0
0.01844141155372553 -0.04639728306439923 0.0
0.014973364200609537 -0.010880708304449803 0.0
0.015135569828142955 -0.01106130740139453 0.0
0.015382221448716848 -0.05046322228882965 0.0
0.01244566588776462 -0.04738860356811593 0.0
0.01017437670393072 -0.038435874411341095 0.0
0.010959467271259554 -0.04155814103394987 0.0
0.021037791654327034 -0.03632069090077788 0.0
0.02154146747945594 -0.032528264059651826 0.0
0.01931353409482193 -0.043906207655035175 0.0
0.01544211901932009 -0.02079342384426834 0.0
0.02308155116495522 -0.01740481574736622 0.0
0.015406678732841243 -0.049218094156730896 0.0
0.015525473047737352 -0.04262203151518895 0.0
0.01543842422759982 -0.04812408153573034 0.0
0.015533273629932814 -0.030686927343933072 0.0
0.015473899634605567 -0.03980066129753255 0.0
0.015216820705314386 -0.02622060687244756 0.0
0.015555032077945528 -0.035247105544273384 0.0
0.015323613421194338 -0.03117270805371741 0.0
0.015357636604304914 -0.043118053696805575 0.0
0.015445584217239397 -0.04552666304755671 0.0
0.015412793617433574 -0.049535416190744336 0.0
0.016201850774015453 -0.05010946745205189 0.0
0.013119560056798533 -0.048474823092393676 0.0
0.007789550463209072 -0.022922438219622997 0.0
0.007081527525834128 -0.017710954659906228 0.0
0.02376725665952267 -0.0178184583402091 0.0
0.014425803985375515 -0.049989631360495314 0.0
0.024065482249681854 -0.009830248106606609 0.0
0.006687336488376781 -0.010081954363919739 0.0
0.008335058115027005 -0.031019583606540987 0.0
0.011506330434218073 -0.045127959423348483 0.0
0.00785080208878934 -0.026838246799018424 0.0
0.01060916749877055 -0.04238662704500733 0.0
0.020203168424150982 -0.04270632559756224 0.0
0.018037812803108733 -0.04803211417888312 0.0
0.02094795932981052 -0.03996749286149017 0.0
0.023062540182621057 -0.026666398096965988 0.0
0.016008516864613298 -0.016078303000368506 0.0
0.013176552568153125 -0.048765709807764956 0.0
0.006822919726705646 -0.016262201854095038 0.0
0.008699316749415523 -0.0349918998894779 0.0
0.007879068730407123 -0.030957882239463358 0.0
0.01437653735687184 -0.04836885607199535 0.0
0.012117582693092956 -0.02344325716473407 0.0
0.011620621936046217 -0.019098331811551066 0.0
0.02272062549098748 -0.03219238935250635 0.0
0.014433431802438262 -0.01568171289336338 0.0
0.013128083336290506 -0.040701336007282166 0.0
0.01391780619600598 -0.04689117507779259 0.0
0.0126904895798731 -0.037431177913642436 0.0
0.01793735248825359 -0.03729614136048364 0.0
0.01809757882598753 -0.033597683785634984 0.0
0.017081361547129293 -0.044644143893598616 0.0
0.017114359142703976 -0.049395684227543216 0.0
0.018669916310449675 -0.00950742446857917 0.0
0.017220028225438513 -0.04920554245990577 0.0
0.01884543073721296 -0.009146468731767625 0.0
0.011282239860231604 -0.009728801231448715 0.0
0.014936772702028603 -0.04991165078453246 0.0
0.019115795203198588 -0.018841975825087717 0.0
0.01583749905200562 -0.05025386457608851 0.0
0.01670369327216627 -0.04675122301913867 0.0
0.018103724448336658 -0.02837050602374365 0.0
0.015298879557106399 -0.0500413742994953 0.0
0.015633869599140513 -0.05036440089356477 0.0
0.023740341546982166 -0.02472177429314573 0.0
0.006907391128546032 -0.007835172328047809 0.0
0.019847582278390497 -0.04485575708013517 0.0
0.014797526023469936 -0.050167357324358446 0.0
0.018412997349929152 -0.0478698466706293 0.0
0.015566119903151415 -0.05039328047127765 0.0
0.011857202744072155 -0.00826631969099881 0.0
0.01256749193090887 -0.02973019089821131 0.0
0.011931125400173433 -0.0249354840972996 0.0
0.012926508471808458 -0.03605531972641217 0.0
0.013917639288982013 -0.04597714916550499 0.0
0.01251587774077698 -0.032150074749079466 0.0
0.013489373891991889 -0.04367286869475861 0.0
0.01716056566903589 -0.04089071285540854 0.0
0.017819319411879208 -0.02348116225525678 0.0
0.01723798618016966 -0.03778068610332314 0.0
0.016392477032954662 -0.047073139805203584 0.0
0.015843497455980227 -0.04995376669716259 0.0
0.014997988948365043 -0.05022465436736677 0.0
0.009294806652176892 -0.03935020178296293 0.0
0.00836464521604507 -0.035900690151268316 0.0
0.011048115544822608 -0.04598739374872367 0.0
0.0246200957909668 -0.02061716588332675 0.0
0.022400115314611214 -0.03847007740023907 0.0
0.019712576938768288 -0.045415458301662506 0.0
0.022675429945775427 -0.035047441599832974 0.0
0.01624394070456156 -0.04851870391402853 0.0
0.01377453638197779 -0.04951392977837345 0.0
0.019473002672549315 -0.019404914642934035 0.0
0.018026392891015448 -0.023179235330537357 0.0
0.012156438805436222 -0.047524775311166986 0.0
0.006019473984646643 -0.014127626298961653 0.0
0.025080777049748565 -0.013655474717668687 0.0
0.006803543548589408 -0.0258767292660605 0.0
0.015653415477649837 -0.050251232684836146 0.0
0.015048410490452689 -0.05022123450059171 0.0
0.01619074127015665 -0.049419368652690664 0.0
0.020694707002682805 -0.04195369548718394 0.0
0.02348403093525608 -0.029699214294983393 0.0
0.015135420080482527 -0.050314179661602315 0.0
0.006378752140140016 -0.02349693650164887 0.0
0.02539665141497355 -0.013746587313083732 0.0
0.025257285565474245 -0.008946772989057146 0.0
0.024459235527206656 -0.02075591530463603 0.0
0.009598753891594435 -0.04056147039818142 0.0
0.010363728061006576 -0.043328131138641826 0.0
0.011599798759741086 -0.014326599060882503 0.0
0.005952048215844519 -0.01929536444476206 0.0
0.02015476645987543 -0.02544250302026281 0.0
0.010156200629185964 -0.04410095342483684 0.0
0.013422964485525126 -0.03876195707868074 0.0
0.013998271240356313 -0.0456328826300091 0.0
0.013058231556794309 -0.03520805653287186 0.0
0.005509741745109049 -0.012818816336961653 0.0
0.023807239893153594 -0.02979950444224708 0.0
0.014312966094611818 -0.047453772647542095 0.0
0.018458016810402388 -0.04227421139305128 0.0
0.017121431931501327 -0.04778983164932564 0.0
0.01883349723231667 -0.03922220789034375 0.0
0.02007276681378025 -0.025642831704449698 0.0
0.016877603170744132 -0.04976254989353528 0.0
0.012975945471246876 -0.026534150933788917 0.0
0.021499911098706664 -0.04107106937670433 0.0
0.022248929427464124 -0.038060868845512213 0.0
0.01901423058852389 -0.047089135002514854 0.0
0.021435628550638245 -0.014486875783713575 0.0
0.01280128907410636 -0.014008123127935217 0.0
0.013509124410531714 -0.04933042432704225 0.0
0.017248664855738782 -0.04755964725880399 0.0
0.008140138170810053 -0.03713975329754116 0.0
0.007162684234433101 -0.03338686230507087 0.0
0.016650822778617468 -0.04934150417724295 0.0
0.012457520164600326 -0.022489117647392528 0.0
0.02092953018059601 -0.031242069661943955 0.0
0.017703907820477337 -0.0125627224505017 0.0
0.0180165917249699 -0.04871541279073105 0.0
0.021875695190874542 -0.0074012924907007486 0.0
0.011353198990246307 -0.046264477085160516 0.0
0.006750371924377513 -0.028738899170185368 0.0
0.016403116650823432 -0.049836167062360825 0.0
0.012159395602182104 -0.047932098558570356 0.0
0.017704065342515663 -0.045637910546482294 0.0
0.023344416617435134 -0.03477952264403363 0.0
0.015400716003081402 -0.05046665216657316 0.0
0.016027918913675627 -0.00824308688338876 0.0
0.014406075928904668 -0.04955217073969427 0.0
0.015082794290366752 -0.04888916710391144 0.0
0.014271786706515384 -0.028728126423321645 0.0
0.014608584377061931 -0.04137077697094164 0.0
0.014531424730317922 -0.032971169540032194 0.0
0.014812549091383806 -0.04405462018985671 0.0
0.0055906079576742386 -0.02012499619379465 0.0
0.016262442238717197 -0.00801372863836965 0.0
0.019403139649264742 -0.04667416676624967 0.0
0.01539692693271423 -0.05045904008355792 0.0
0.015018566105233336 -0.050292168227446955 0.0
0.012266476866102313 -0.010965078334343506 0.0
0.0251141028924589 -0.02352711699067314 0.0
0.019506118044279805 -0.031387369863825704 0.0
0.01963409249383373 -0.035131068647143195 0.0
0.018097462620136184 -0.043210896666305385 0.0
0.012063808959500648 -0.0395110757166053 0.0
0.012618143160251121 -0.042491570617280365 0.0
0.013806725268886086 -0.04803965468356787 0.0
0.007059576981528086 -0.03296879285078773 0.0
0.006183223630938392 -0.0287150804237503 0.0
0.012857166423065615 -0.04627401492166792 0.0
0.010966684296641993 -0.036468358947508946 0.0
0.011597544711846788 -0.039859517045110975 0.0
0.017872095521216304 -0.03079158911754308 0.0
0.0171996331534132 -0.01320020921240562 0.0
0.008974567819460192 -0.008303725067876416 0.0
0.021281446854842484 -0.007133722073739926 0.0
0.016225019960209027 -0.044022452992873745 0.0
0.01666608519003599 -0.03315167554837855 0.0
0.015802715395474055 -0.048806466583462216 0.0
0.016298090537583805 -0.04131616696097086 0.0
0.01665208587607304 -0.028521611865460244 0.0
0.024027043470787247 -0.02736312109085037 0.0
0.00935333744104081 -0.0063078897904541974 0.0
0.01964849559293685 -0.038251238366791646 0.0
0.018189338351209186 -0.04526951276363886 0.0
0.02003748629192865 -0.03468047507096792 0.0
0.014571482234736059 -0.03723539886584293 0.0
0.014804275223241257 -0.04460966133443199 0.0
0.0143400427831476 -0.0334534332600605 0.0
0.016916478983300814 -0.04973187283612899 0.0
0.014949158417390295 -0.04676021228494333 0.0
0.010932634251481749 -0.03474757535530992 0.0
0.010342626455782239 -0.030675851423328987 0.0
0.018083467510599395 -0.0486260334404936 0.0
0.01588987247361006 -0.05022102428444236 0.0
0.013037496574358164 -0.02100464308120136 0.0
0.014494388416100897 -0.023180750912152718 0.0
0.014060135588587009 -0.018100740575132557 0.0
0.013635344091933673 -0.048249007831578074 0.0
0.014552627260695335 -0.028311766936191814 0.0
0.00804527522090951 -0.03755288000372851 0.0
0.009082075474673592 -0.04077967157438479 0.0
0.015505713828777828 -0.05025928308134665 0.0
0.023343302926434967 -0.033006635253615205 0.0
0.020387467899597698 -0.04415834359653807 0.0
0.011951271607371826 -0.043824233767275345 0.0
0.011268796024132235 -0.041046560811037205 0.0
0.00996775157733202 -0.023948051767244287 0.0
0.026013596380457922 -0.006537967809074299 0.0
0.00510451617541088 -0.008560799144918842 0.0
0.01640532743532312 -0.01774305823484978 0.0
0.016004122972963487 -0.049515667949508416 0.0
0.015135715239876352 -0.04858665448585485 0.0
0.014795510291741107 -0.04914647083258039 0.0
0.013499993784049143 -0.008260160313261782 0.0
0.014001734558907478 -0.049795930363179065 0.0
0.025531144949111843 -0.017789632171706836 0.0
0.014558733105512062 -0.023413992409087106 0.0
0.020434996681046497 -0.012128789783746496 0.0
0.014070973933970951 -0.04894746846075973 0.0
0.014950741084306184 -0.040949850636022675 0.0
0.015034417520062234 -0.04714083712072725 0.0
0.014725728908994661 -0.03787152740621131 0.0
0.01008993243645973 -0.021372404753960385 0.0
0.01027388529595514 -0.029761552786458034 0.0
0.009720638437724586 -0.02515348063995066 0.0
0.012808417977713517 -0.04594333619897476 0.0
0.012103073762560982 -0.04359334530487001 0.0
0.015683220713783513 -0.049779720084840065 0.0
0.012358540140840537 -0.04832911595951374 0.0
0.021439350723491898 -0.01997931959008261 0.0
0.021555649964099432 -0.028676606948559558 0.0
0.019646460300718645 -0.04134602921442759 0.0
0.014945984938441983 -0.04952877434544614 0.0
0.017201107314154532 -0.048785278288283704 0.0
0.005181063661821422 -0.023398510682777707 0.0
0.009251477644040135 -0.01964830426692744 0.0
0.009725460694025481 -0.016891731267324475 0.0
0.01785503282188314 -0.025832816147674024 0.0
0.01706605768365586 -0.04236621365334309 0.0
0.017262641337492612 -0.03945376154840227 0.0
0.01631788811652931 -0.04792297112330119 0.0
0.019103132735945636 -0.04418475019944794 0.0
0.014059978483600154 -0.04253896660519939 0.0
0.014619448385110298 -0.04806426094794696 0.0
0.013740654287735788 -0.03961258405211053 0.0
0.02540500853257481 -0.01127088353993545 0.0
0.015325914389053038 -0.050040576724408425 0.0
0.018007817815520435 -0.039234041099576816 0.0
0.018091834396619863 -0.036112822103687825 0.0
0.016947047929289073 -0.046141538541228905 0.0
0.016620048955521004 -0.045403385205031746 0.0
0.011345986424816485 -0.046874463758873226 0.0
0.015639994071623545 -0.05035644525040143 0.0
0.016813526265979355 -0.04294037525348198 0.0
0.017515501155841048 -0.030930288736264716 0.0
0.017442647619737284 -0.020851530691703212 0.0
0.020685562477717846 -0.04362358177791757 0.0
0.009412821334208753 -0.011468120856554794 0.0
0.020865056620564086 -0.01086583908593223 0.0
0.022897971609092217 -0.03689216394888717 0.0
0.008603737714146187 -0.01883868870667771 0.0
0.01423722902493205 -0.049716473885317906 0.0
0.0211258256189808 -0.016536998754700348 0.0
0.020621252747911253 -0.016755753599002592 0.0