<VTKFile type="UnstructuredGrid"  version="0.1">
<UnstructuredGrid>
<Piece NumberOfPoints="713" NumberOfCells="1304">
<Points>
<DataArray type="Float64" NumberOfComponents="3" format="ascii">
0.0 0.0 0.0
10.0 0.0 0.0
10.0 2.0 0.0
5.0 2.0 0.0
0.0 2.0 0.0
0.199999999999856 0.0 0.0
0.3999999999996677 0.0 0.0
0.5999999999994683 0.0 0.0
0.7999999999993286 0.0 0.0
0.9999999999991888 0.0 0.0
1.199999999999033 0.0 0.0
1.399999999998576 0.0 0.0
1.599999999997992 0.0 0.0
1.799999999997408 0.0 0.0
1.999999999996825 0.0 0.0
2.199999999996241 0.0 0.0
2.399999999995657 0.0 0.0
2.599999999995073 0.0 0.0
2.79999999999449 0.0 0.0
2.999999999993906 0.0 0.0
3.199999999993322 0.0 0.0
3.399999999992738 0.0 0.0
3.599999999992154 0.0 0.0
3.799999999991571 0.0 0.0
3.999999999991022 0.0 0.0
4.199999999991187 0.0 0.0
4.399999999991491 0.0 0.0
4.599999999991795 0.0 0.0
4.799999999992099 0.0 0.0
4.999999999992403 0.0 0.0
5.199999999992706 0.0 0.0
5.39999999999301 0.0 0.0
5.599999999993313 0.0 0.0
5.799999999993618 0.0 0.0
5.999999999993922 0.0 0.0
6.199999999994227 0.0 0.0
6.39999999999453 0.0 0.0
6.599999999994833 0.0 0.0
6.799999999995138 0.0 0.0
6.999999999995442 0.0 0.0
7.199999999995747 0.0 0.0
7.39999999999605 0.0 0.0
7.599999999996353 0.0 0.0
7.799999999996658 0.0 0.0
7.999999999996962 0.0 0.0
8.199999999997265 0.0 0.0
8.399999999997569 0.0 0.0
8.599999999997873 0.0 0.0
8.799999999998176 0.0 0.0
8.99999999999848 0.0 0.0
9.199999999998786 0.0 0.0
9.399999999999089 0.0 0.0
9.599999999999392 0.0 0.0
9.799999999999697 0.0 0.0
10.0 0.1999999999996293 0.0
10.0 0.3999999999991157 0.0
10.0 0.5999999999985328 0.0
10.0 0.7999999999979498 0.0
10.0 0.9999999999973885 0.0
10.0 1.199999999997894 0.0
10.0 1.39999999999842 0.0
10.0 1.599999999998947 0.0
10.0 1.799999999999474 0.0
9.799999999999999 2.0 0.0
9.6 2.0 0.0
9.399999999999999 2.0 0.0
9.2 2.0 0.0
8.999999999999998 2.0 0.0
8.799999999999999 2.0 0.0
8.599999999999998 2.0 0.0
8.399999999999999 2.0 0.0
8.2 2.0 0.0
7.999999999999998 2.0 0.0
7.799999999999999 2.0 0.0
7.599999999999999 2.0 0.0
7.399999999999999 2.0 0.0
7.199999999999999 2.0 0.0
7.0 2.0 0.0
6.799999999999999 2.0 0.0
6.6 2.0 0.0
6.399999999999999 2.0 0.0
6.199999999999999 2.0 0.0
5.999999999999999 2.0 0.0
5.8 2.0 0.0
5.6 2.0 0.0
5.399999999999999 2.0 0.0
5.199999999999999 2.0 0.0
4.8 2.0 0.0
4.6 2.0 0.0
4.399999999999999 2.0 0.0
4.199999999999998 2.0 0.0
3.999999999999999 2.0 0.0
3.799999999999999 2.0 0.0
3.599999999999999 2.0 0.0
3.399999999999999 2.0 0.0
3.199999999999998 2.0 0.0
2.999999999999999 2.0 0.0
2.799999999999999 2.0 0.0
2.599999999999999 2.0 0.0
2.399999999999999 2.0 0.0
2.199999999999999 2.0 0.0
2.0 2.0 0.0
1.799999999999999 2.0 0.0
1.599999999999999 2.0 0.0
1.399999999999999 2.0 0.0
1.199999999999999 2.0 0.0
0.9999999999999991 2.0 0.0
0.7999999999999998 2.0 0.0
0.5999999999999996 2.0 0.0
0.3999999999999995 2.0 0.0
0.1999999999999993 2.0 0.0
0.0 1.799999999999167 0.0
0.0 1.6 0.0
0.0 1.400000000001387 0.0
0.0 1.200000000002774 0.0
0.0 1.000000000004117 0.0
0.0 0.8000000000033287 0.0
0.0 0.6000000000024965 0.0
0.0 0.4000000000016644 0.0
0.0 0.200000000000832 0.0
1.499207686858938 0.9671416246672391 0.0
2.690335006295381 0.9619521672166851 0.0
3.892537609238439 1.007271393615351 0.0
8.916602958236062 0.9848120741100651 0.0
7.714518201951718 1.024234589865042 0.0
6.514518201951581 1.024234589865268 0.0
5.299999999999998 1.000000000000349 0.0
0.7620577975594133 1.201991596673393 0.0
4.61755859746166 1.240410629378135 0.0
2.099999999996533 0.6749999999988996 0.0
3.289480163184942 0.6802242156869155 0.0
8.299999999999976 1.325000000000064 0.0
7.110519836808121 1.319775784312006 0.0
5.893184537067197 1.292851873188582 0.0
3.268568008578649 1.341967835735878 0.0
2.118368267083699 1.321829331075689 0.0
5.930896443153832 0.6493414313150682 0.0
7.106926174231782 0.6329785805444448 0.0
8.306926174233002 0.6329785805444098 0.0
4.427960725065653 0.6389803625370323 0.0
0.9828791719046732 0.6520555711814596 0.0
9.383333333333349 0.6166666666667164 0.0
9.383333333333326 1.383333333333367 0.0
4.974443803660211 0.5526668589022862 0.0
1.248084267804327 1.464555585366204 0.0
4.139486343919472 1.468449088519687 0.0
5.077806736162063 1.478342020848787 0.0
1.629462398503482 0.5098631373669138 0.0
2.579462070540726 0.5133714280880515 0.0
3.770778974032556 0.5099482598296803 0.0
8.764748922637567 1.526880805960684 0.0
7.820537929455645 1.486628571911716 0.0
6.632254923791462 1.492045881343967 0.0
2.796478414430566 1.477149214423874 0.0
6.403521585563812 0.5228507855762514 0.0
7.603521585564883 0.5228507855756581 0.0
8.783559188644787 0.5066440811355862 0.0
0.5060338924245764 0.5082251307884346 0.0
5.451633334958382 0.4799315318847731 0.0
1.683269995544083 1.547372422998862 0.0
0.448590368789599 1.551409631210402 0.0
5.545526974704655 1.582008455135239 0.0
3.666056976948354 1.56999765613834 0.0
0.4385739326402744 0.9352922270094057 0.0
9.58170539854767 0.9922137522194456 0.0
4.93200119575972 0.9247090920592975 0.0
6.20679636316332 1.642443126922768 0.0
7.418963044745086 1.587405313446662 0.0
2.98103695524982 0.412594686552066 0.0
2.420975602092416 1.592770352831584 0.0
7.97902439790374 0.4072296471687943 0.0
6.779024397902082 0.4072296471687297 0.0
1.130444757308209 0.9859238872709168 0.0
0.8901814758011342 1.60566856081121 0.0
4.263670373274499 0.9915754392410991 0.0
3.096698167273431 1.009056907826855 0.0
6.088506433998166 0.9857489435828969 0.0
1.902225037409936 1.003483800311746 0.0
7.288506433998439 0.9857489435828686 0.0
8.498964973312972 1.005823551167602 0.0
2.307571737417198 1.008136792450924 0.0
8.100397971125554 1.000138280273345 0.0
6.900397971125225 1.000138280273792 0.0
3.499307350770321 0.9996496628144824 0.0
5.703656022566558 0.9885479657552226 0.0
4.719420624357892 1.622286409566126 0.0
4.099803549896894 0.3600308081356619 0.0
1.286100671532495 0.3637431910670685 0.0
9.120549139677793 1.655065205594329 0.0
9.11726214008418 0.3400668903113251 0.0
4.642568097328033 0.3514924793220939 0.0
9.630437629189052 0.3309104953729904 0.0
9.674493769554315 1.668196579944218 0.0
1.936458797611609 0.3337070483410596 0.0
3.461817573918652 0.3447876019040473 0.0
8.440152788772068 1.649667667046397 0.0
6.973083089482548 1.643748677366674 0.0
3.126874515006838 1.659115470008545 0.0
6.070607878384977 0.3410183041038941 0.0
7.255014454789089 0.32792256737713 0.0
8.462493615948901 0.3368393217476116 0.0
9.236261261261264 0.9276047786917867 0.0
5.885444386845415 1.667751020273455 0.0
0.8062340689595878 0.3261579034781319 0.0
2.29463843780282 0.308358158429197 0.0
8.10536156219338 1.691641841570632 0.0
4.041916759198581 0.7211683801597477 0.0
1.324377365289917 0.710525897087282 0.0
9.023167917315867 1.292262965009952 0.0
2.044244009166302 1.693807225416931 0.0
0.7675765545556328 0.8969765944392112 0.0
2.86965991063896 0.7069213925303978 0.0
6.330340089355722 1.293078607468788 0.0
7.530340089355831 1.29307860746885 0.0
2.509347777214458 1.27231292939881 0.0
7.890652222779963 0.7276870706009825 0.0
6.690652222780154 0.7276870706013264 0.0
4.380959112578968 1.65866292149053 0.0
0.3278422400819535 1.233362752678148 0.0
5.754468991464942 0.3469215055361071 0.0
9.69195804401614 0.7000195364707393 0.0
9.691250997975434 1.303243780084337 0.0
5.54324561063747 1.237401556904767 0.0
9.044596057577811 0.6843248705785732 0.0
5.208929198448351 0.3519433027337513 0.0
3.708880196230617 1.249762029554333 0.0
1.713349558540635 1.234899745098077 0.0
4.586522821995393 0.9261740906803194 0.0
5.241145838821565 0.7007005766013242 0.0
1.434457446926135 1.701926055218157 0.0
0.2821921707428039 0.3393165318407161 0.0
3.42846431357046 1.714274134409306 0.0
5.26283485467567 1.710141275531951 0.0
3.966530105129177 1.718376080180638 0.0
4.891301048299285 1.259923533724591 0.0
0.2787500712946937 0.6906723798523376 0.0
1.822166578929051 0.7301892210727335 0.0
8.593276160688786 1.287322908694633 0.0
2.386017956680413 0.7288816957021155 0.0
3.576911792171353 0.7225526638483954 0.0
8.013982043315597 1.271118304297217 0.0
6.82303669320588 1.277631295759485 0.0
2.891837633696712 1.215141906356511 0.0
8.708162366297856 0.7848580936429009 0.0
7.496736072543097 0.7897651325976158 0.0
6.296736072542775 0.7897651325982009 0.0
5.523181420933933 0.7588744249744506 0.0
4.725538117155759 0.6529070682798582 0.0
2.736307197014292 0.273961667653487 0.0
7.663692802980817 1.726038332346062 0.0
6.446842959287713 1.783714797320288 0.0
1.126188383272983 1.743715177525389 0.0
2.64757240694847 1.787239829472812 0.0
6.546646507559373 0.2589894635657943 0.0
7.746646507561152 0.2589894635657218 0.0
4.079302268890254 1.221431431691139 0.0
4.433746883463333 0.2983726043497702 0.0
1.032697650548726 1.318076986199429 0.0
1.309492735411376 1.208980965369829 0.0
3.896105387998365 0.2579746081881307 0.0
9.378751775005455 1.725996478164223 0.0
9.3965279828929 0.2649862374471925 0.0
1.515757555362918 0.2603060454608533 0.0
4.959097093232828 1.726144293543605 0.0
4.912501341257775 0.2529154558175828 0.0
4.342421824442713 1.285376618065631 0.0
7.023506283123107 0.293611963231815 0.0
8.215829626877609 0.2682061590942965 0.0
5.28145265730745 1.291130016052329 0.0
8.693992162747364 1.744100892812201 0.0
0.6256567126095668 1.775064851453201 0.0
0.2724967459749605 1.756941612685287 0.0
8.90781713264278 0.2741674349222226 0.0
7.184202236567151 1.709454269177068 0.0
3.212962614055919 0.2641656831057426 0.0
0.6761590188374282 0.6746441670621973 0.0
1.020489328989316 0.2487299689497893 0.0
1.485017749467193 1.402133856149482 0.0
6.734223224917944 1.790518105434539 0.0
2.657549589911705 0.7636227781082678 0.0
6.542590471647475 1.237213715285722 0.0
7.742745187066703 1.235538225115726 0.0
0.5794341726414672 0.2480285055479751 0.0
1.842901067642841 1.760146518280044 0.0
3.84389577648662 0.7524680119172447 0.0
3.061589173628368 1.407936939342627 0.0
6.144447294584154 0.5911674363009913 0.0
7.344447294585433 0.5911674362995804 0.0
8.544447294586682 0.5911674362982269 0.0
5.491507940982565 0.1734458797927824 0.0
[...]
<PointData Vectors="fields">
<DataArray type="Float64" Name="U" NumberOfComponents="3" format="ascii">
0.0 0.0 0.0
0.030000771870697374 0.0 0.0
0.0024444314180661884 -0.005445638251532844 0.0
0.014941205958241277 -0.047877563948268004 0.0
0.027227172855324715 -0.005109108457112427 0.0
0.0002953637406577785 -0.005646409867920315 0.0
0.0009048626609097343 -0.009296155374676904 0.0
0.0014550163688575196 -0.012521584523893115 0.0
0.001918489206360994 -0.015363481210062428 0.0
0.0023251964638309076 -0.018075527600858426 0.0
0.0027187302979623804 -0.02068222549020134 0.0
0.0031161794150833186 -0.02319286620135017 0.0
0.0035538937212698744 -0.025619758239629316 0.0
0.004007985862283848 -0.027963909903948137 0.0
0.004499785148366635 -0.03020033671021931 0.0
0.005016479416403411 -0.03232800418572094 0.0
0.005578698906567793 -0.03434785152669246 0.0
0.00614921487757308 -0.036243777932814775 0.0
0.006774323819076805 -0.03801558909116734 0.0
0.007395172947840901 -0.03965682792885568 0.0
0.008063537355587297 -0.04116057961157833 0.0
0.008732591854789222 -0.04251541555241888 0.0
0.009435905567944857 -0.04373112748782933 0.0
0.010144859086468368 -0.044769569342882246 0.0
0.010862363088184382 -0.04570253922826811 0.0
0.011610988773498785 -0.04645944435850103 0.0
0.01235326480691013 -0.047052435454305354 0.0
0.01311935562863688 -0.04749166886474744 0.0
0.013875125837996324 -0.047759894858095786 0.0
0.01466371946555833 -0.0478715239466582 0.0
0.015433272458506318 -0.047818559365030835 0.0
0.01620636425444124 -0.04759715321624808 0.0
0.016980997012471362 -0.047213513721742546 0.0
0.017752562303916735 -0.046661485530054815 0.0
0.018511648635579806 -0.04595269148418171 0.0
0.019294820689982117 -0.04509158288574376 0.0
0.02004469588319603 -0.044027937347457656 0.0
0.020799644967578784 -0.042857874095148726 0.0
0.021522375363918846 -0.041529734826300076 0.0
0.022239735756244598 -0.040030020717831745 0.0
0.02291016050943914 -0.038391740522635234 0.0
0.02354873224514847 -0.03662320359228159 0.0
0.02413220729547649 -0.03469693726052364 0.0
0.02469770321845824 -0.032693648443688265 0.0
0.025214863139359788 -0.030569433605063694 0.0
0.02570837745830712 -0.028328776508686624 0.0
0.0261599179019125 -0.02598147825297524 0.0
0.02659077132226389 -0.02355185414453399 0.0
0.026983946847102733 -0.021031683412878414 0.0
0.027384912318030908 -0.01841707548337861 0.0
0.02777826679026742 -0.015709779956881716 0.0
0.028215585247644077 -0.012853478249768912 0.0
0.028702025123842945 -0.009758333492620523 0.0
0.029451594171258394 -0.006077839679702243 0.0
0.025371610511258427 -0.002144892949721603 0.0
0.02235758810253169 -0.003327027050473313 0.0
0.01962186053238429 -0.004076998545283689 0.0
0.017104791197200934 -0.00464211849135876 0.0
0.014662260094910843 -0.004997747616319014 0.0
0.012262836512754796 -0.005229658638840383 0.0
0.009865557337663108 -0.005369573442825985 0.0
0.007433429682140093 -0.005432352477216975 0.0
0.004958630692742652 -0.005445490332526647 0.0
0.002442634280551247 -0.007969070351796115 0.0
0.0024498257363070484 -0.010524629349788994 0.0
0.002496590117309456 -0.013119020810096823 0.0
0.002603932416061307 -0.015739529730785122 0.0
0.002781401543308296 -0.018350119938295287 0.0
0.0030221246752547342 -0.020917540285033665 0.0
0.0033298651175182963 -0.02345116548293025 0.0
0.00369117619953396 -0.025897635904496917 0.0
0.004107266591304689 -0.02825550989784279 0.0
0.00458344730839754 -0.030520526146206088 0.0
0.005084013014476882 -0.03266934588524206 0.0
0.005649742718088222 -0.034705288805250215 0.0
0.0062252495239307195 -0.03661514926118015 0.0
0.006857754388520676 -0.03839128563729187 0.0
0.007510949476314732 -0.04003357744864431 0.0
0.008191715911432496 -0.041528905865556444 0.0
0.008878063767540424 -0.0428407655258411 0.0
0.009602075547034841 -0.04406244622290741 0.0
0.010341366306061146 -0.045086976431243896 0.0
0.011073965016941792 -0.045957814081386314 0.0
0.011836527891217623 -0.046675817477463084 0.0
0.012620427302360388 -0.04722178469264578 0.0
0.013375690961504953 -0.04760358236257046 0.0
0.014164504148212156 -0.04782437540363323 0.0
0.015734174616330525 -0.04775371660133609 0.0
0.016490984472088223 -0.04748224622799192 0.0
0.017239274311820423 -0.047051720118914356 0.0
0.018001771529193966 -0.04646909919256005 0.0
0.018753467700427608 -0.04570607729360463 0.0
0.019498866735796865 -0.044789611653196344 0.0
0.02019383949702306 -0.043728419206131755 0.0
0.02089473382715424 -0.04251457500780364 0.0
0.021570974962155456 -0.04116097677489652 0.0
0.022236703940438425 -0.03965940185892413 0.0
0.022857409724292625 -0.037988479975736004 0.0
0.023471668376666303 -0.03623687487618937 0.0
0.024042215735538438 -0.03432604274407171 0.0
0.02457816443144254 -0.03229398764121591 0.0
0.025095799548264176 -0.03014606559835861 0.0
0.025564552018802505 -0.02788826590668277 0.0
0.02597480525848607 -0.025537451340733097 0.0
0.026351303950377315 -0.023089043740086853 0.0
0.02665627817915513 -0.020570559736237858 0.0
0.026899763832215064 -0.01799069070636866 0.0
0.027068687330897435 -0.015386780461616267 0.0
0.027169614115492152 -0.012770594768086422 0.0
0.027219255398792715 -0.010181782875662822 0.0
0.027230941201720038 -0.007626009420243169 0.0
0.024716481294349824 -0.005110379256513564 0.0
0.022244673596360093 -0.005097733186606153 0.0
0.019819519473016408 -0.005039304486832101 0.0
0.017420660892928208 -0.004905062484077897 0.0
0.015029377503394522 -0.004657324910639032 0.0
0.012592769086166765 -0.004306387175904014 0.0
0.010079636429365251 -0.0037457501040845326 0.0
0.007367673458053199 -0.0029705231211522025 0.0
0.004155940416339496 -0.00167903549141766 0.0
0.014484700321204047 -0.024514985633433233 0.0
0.014495329635236157 -0.03730620680518159 0.0
0.014833517890383192 -0.04553422678445094 0.0
0.014947466552594112 -0.0195560015338549 0.0
0.014657908448579435 -0.03379377880065317 0.0
0.014713532520633888 -0.043702313966109574 0.0
0.0148074878434942 -0.04805098506264978 0.0
0.01738531592979779 -0.01489764941151457 0.0
0.015185915478456791 -0.04781892963715735 0.0
0.011630795297286405 -0.031458750003165836 0.0
0.012795940399173495 -0.04203523941850568 0.0
0.011400023468418922 -0.027257409294003034 0.0
0.01246660473793847 -0.039383879263772646 0.0
0.01387662629559794 -0.0466547446988082 0.0
0.01698683074046171 -0.04189158687855449 0.0
0.017928818166676838 -0.03162764842442779 0.0
0.015995711270111374 -0.04650756941661412 0.0
0.017632237936986123 -0.03941857451635804 0.0
0.01881604032142632 -0.027231270583914256 0.0
0.013982028526601761 -0.04740290924567359 0.0
0.010773352157158867 -0.0178938626906612 0.0
0.019380438620220306 -0.013148202570380386 0.0
0.010115116219514653 -0.013319651225124355 0.0
0.014693704672186206 -0.048118454667677155 0.0
0.020179083580139572 -0.021282274072464403 0.0
0.016385529519041514 -0.0464867627843026 0.0
0.014721850061339645 -0.048115775399839016 0.0
0.009474477942740787 -0.026094623950801255 0.0
0.010657421118196429 -0.03623986469558551 0.0
0.012514820100225746 -0.04486895193603057 0.0
0.008774702668100423 -0.021466073196850722 0.0
0.01020526403486643 -0.032621645332013643 0.0
0.01192492799495383 -0.0428830219521219 0.0
0.018561476976811375 -0.038174895014957314 0.0
0.017277573738716846 -0.044270884290401144 0.0
0.019200166241513467 -0.03486404661037668 0.0
0.020610688153651226 -0.021327697543210636 0.0
0.008899930903581776 -0.011147379051679243 0.0
0.01562347274350582 -0.047750535034456726 0.0
0.020696866257020156 -0.026649619625881443 0.0
0.02162522507706277 -0.01078395515600353 0.0
0.013678078425503302 -0.04755802926598693 0.0
0.01769867702150244 -0.04429604644596106 0.0
0.014292745614625062 -0.010385811636065731 0.0
0.014712837801301814 -0.01048690630174938 0.0
0.014775214142858964 -0.04818490460198899 0.0
0.011983621299093023 -0.04523623414503372 0.0
0.009876354809058399 -0.036601013979357534 0.0
0.010509351910706653 -0.039680479669526994 0.0
0.020130543801814654 -0.03468953826319793 0.0
0.02085986525665346 -0.03092695677860575 0.0
0.01869315491296288 -0.04186412722164068 0.0
0.01474905987931605 -0.019820616503801625 0.0
0.022092302333604305 -0.01660234219244887 0.0
0.014781817065006659 -0.04698035690821476 0.0
0.014870474295113635 -0.04066859333825288 0.0
0.014886680041072776 -0.045909046798672255 0.0
0.014852379808858033 -0.02928171708115526 0.0
0.014992192126160394 -0.03788226933349817 0.0
0.01477892955348046 -0.024894473606115845 0.0
0.014881161661181495 -0.033643623254991574 0.0
0.014872644823161564 -0.02961775395881701 0.0
0.014859970545359289 -0.041079803526012273 0.0
0.014803443708028144 -0.043432343088425106 0.0
0.014838414256378085 -0.04727398196364533 0.0
0.015555044899810484 -0.047879821492932406 0.0
0.012560167762147157 -0.04629069872476348 0.0
0.007411513748001238 -0.02186490581630133 0.0
0.006981364884015595 -0.016815429667435898 0.0
0.02297350281959042 -0.016905072448569092 0.0
0.01383318413698848 -0.047753512427369825 0.0
0.02326102598434801 -0.009316264174785061 0.0
0.006608629759553858 -0.009551134339671724 0.0
0.007950169096069682 -0.029617342148964495 0.0
0.011028339731136157 -0.04308619259472017 0.0
0.007697958981780179 -0.02550860183156287 0.0
0.010267208104471329 -0.040408751975861 0.0
0.01934650190576484 -0.04078338566587879 0.0
0.017395373074545157 -0.04585451012860921 0.0
0.020300708142607767 -0.03806991583253666 0.0
0.022307150438137663 -0.025333206839173804 0.0
0.01555322583191511 -0.015249498112385157 0.0
0.012657523064481545 -0.046570713783514434 0.0
0.006485147999552798 -0.015507065664099238 0.0
0.008318271427443074 -0.03342153961606025 0.0
0.007710632230250696 -0.029445747768402156 0.0
0.013775650638790634 -0.04616296803219184 0.0
0.011560534872422555 -0.022351675906956452 0.0
0.01133401830821781 -0.018124223318681517 0.0
0.02174935584238923 -0.030748408657032145 0.0
0.013773295202234947 -0.014949835860650369 0.0
0.01257639527418028 -0.03884773396776592 0.0
0.013424773990362151 -0.044726435838712046 0.0
0.01230981517364233 -0.03561483525295779 0.0
0.017164110193385217 -0.0356047400291902 0.0
0.017543860520222356 -0.031935487581481375 0.0
0.016521482362738 -0.04255774810400339 0.0
0.016444251889036338 -0.04719258358018147 0.0
0.017847253408979125 -0.009077721989870882 0.0
0.01658544132625499 -0.046987735551194953 0.0
0.01826817934404366 -0.008672388573890834 0.0
0.011010135973493245 -0.009215687425773524 0.0
0.014356958290404717 -0.04764630865759238 0.0
0.018529903723628362 -0.017872842077806945 0.0
0.015223988439653545 -0.04800452007893652 0.0
0.016024502584663737 -0.04460988305193142 0.0
0.017318558280703777 -0.027068292982905237 0.0
0.01468342136298121 -0.04777854136150859 0.0
0.01503353419185628 -0.048087427670749125 0.0
0.022733770096347455 -0.023595571435703327 0.0
0.006568561722431314 -0.007481709339535654 0.0
0.019028935070476042 -0.042839196149414865 0.0
0.014186665015719703 -0.047940060306790176 0.0
0.01769138758630931 -0.04572626383485037 0.0
0.014946350314665385 -0.048127147436785124 0.0
0.011308227568080389 -0.0078992161875911 0.0
0.012004176589852268 -0.028367384258003683 0.0
0.011621391392168657 -0.0236778383427769 0.0
0.012367901659935497 -0.03441830607113304 0.0
0.013335150480916758 -0.04386817662367407 0.0
0.012164455050031817 -0.030559188080368997 0.0
0.013042723825028728 -0.041622032810148105 0.0
0.016427593405178995 -0.039026632027880544 0.0
0.017282676008564875 -0.02228488397257071 0.0
0.01670884631090324 -0.03594221430401653 0.0
0.01582548932091052 -0.044899723312118674 0.0
0.015249708578794771 -0.04768445062055006 0.0
0.01439366185676873 -0.04796066863327189 0.0
0.008912022602672943 -0.037587659159657144 0.0
0.008151099740912967 -0.034181014393233365 0.0
0.010653657775410445 -0.043901629606496684 0.0
0.023574014552859894 -0.01967304427859629 0.0
0.021432890705629034 -0.03675848145437475 0.0
0.01905741785518602 -0.0433357845807129 0.0
0.021958246631900852 -0.03335046072788392 0.0
0.015594195648366265 -0.046310208531180536 0.0
0.013196623784390809 -0.047299863584264946 0.0
0.01862468901102632 -0.018501600052316516 0.0
0.017238251449614647 -0.022102247182699673 0.0
0.011637780417236152 -0.04538932139819312 0.0
0.005969625052466941 -0.013406926224223258 0.0
0.02422554986503524 -0.012948930270800732 0.0
0.006469865927392162 -0.024697354953999762 0.0
0.015015896929190253 -0.04802709528828915 0.0
0.01444577170380431 -0.04798681332093506 0.0
0.01554892252722139 -0.04718530415948015 0.0
0.020048009861971052 -0.03998836783013881 0.0
0.022717283150481424 -0.028233140518883315 0.0
0.014535101364019011 -0.04804475345838276 0.0
0.006296442175587382 -0.022328739373317592 0.0
0.02430781007743195 -0.013118299969627944 0.0
0.024171233699801554 -0.008538297968846007 0.0
0.02363479027758058 -0.019704042592165863 0.0
0.009306532748960082 -0.03865777171690667 0.0
0.009942122119681644 -0.04138022537729337 0.0
0.011054354250673094 -0.013659464267372206 0.0
0.0056529224051592875 -0.018405786433509454 0.0
0.01928829993476222 -0.024271863479901325 0.0
0.009814733712511153 -0.04208089906256613 0.0
0.012851635162501842 -0.03699945477253339 0.0
0.013518486514400917 -0.04351069785712118 0.0
0.01267564272810405 -0.03348199141565369 0.0
0.005230337981875826 -0.012227172632860207 0.0
0.022795099860367006 -0.02846193075742552 0.0
0.01371454530771506 -0.045281518881308 0.0
0.017674189383283474 -0.040351514221800486 0.0
0.01651964394520731 -0.04560086880829893 0.0
0.01825315189326888 -0.03733451112511084 0.0
0.01944316129126702 -0.024346583836845775 0.0
0.01623847208009817 -0.04754754747456186 0.0
0.012389616536606689 -0.02530721481721554 0.0
0.020577241823431156 -0.03923736882051483 0.0
0.021557365285816362 -0.036245241101043636 0.0
0.018352633254525547 -0.044955525533803206 0.0
0.020505669465015215 -0.013818482186187146 0.0
0.01247200721027478 -0.013285964681139158 0.0
0.012960324798149563 -0.04712648281002153 0.0
0.016561245436506677 -0.04539630490082153 0.0
0.007796283525138286 -0.03548316240085368 0.0
0.007011652696688606 -0.0317786996073296 0.0
0.016039656486085963 -0.0471021709100649 0.0
0.01213253515298197 -0.021347153949213413 0.0
0.02003246508765627 -0.02982821959594315 0.0
0.01691614060418071 -0.011985377610751951 0.0
0.017314815996807537 -0.04654995634561744 0.0
0.02093029821655017 -0.007063637568105093 0.0
0.010875220622966468 -0.04418567413421458 0.0
0.006424671799392425 -0.027440693027281506 0.0
0.01575518611999585 -0.04760431185646683 0.0
0.011690456122798901 -0.04578157269598958 0.0
0.016978434956192466 -0.04355353761848034 0.0
0.022341429564490922 -0.03323240289932713 0.0
0.014795222041606423 -0.048188166642288935 0.0
0.015311768569673099 -0.007876521968714556 0.0
0.013842177353632792 -0.047305854304581105 0.0
0.014527335527304265 -0.046648881875894416 0.0
0.013864769369812919 -0.027286916166809352 0.0
0.014144333863422988 -0.03939615857223069 0.0
0.013895649135610519 -0.03146736857346812 0.0
0.01419240283910618 -0.04203142303406665 0.0
0.005550638387990511 -0.019117907415474623 0.0
0.015784726457716412 -0.007591334309829428 0.0
0.01862911847811967 -0.04458735189220517 0.0
0.014793855417799873 -0.04818093508329371 0.0
0.014410129420010331 -0.04803730278046585 0.0
0.011693999642548254 -0.01046502038196469 0.0
0.024262924489735722 -0.02234866519879435 0.0
0.018900487197104233 -0.029826579203308248 0.0
0.018787928125483282 -0.0335437401570565 0.0
0.017520465514399345 -0.0411791051112142 0.0
0.011691877475815215 -0.037618590121931236 0.0
0.012093302646025513 -0.04055502869463472 0.0
0.013296055412912155 -0.04584041574154198 0.0
0.006737417693475734 -0.03149439132294464 0.0
0.0060935540195486155 -0.02731233737125774 0.0
0.012402903314098442 -0.0441430397938356 0.0
0.010652419251935455 -0.03470265575040727 0.0
0.011113133273393874 -0.0380544846260989 0.0
0.01709768728639915 -0.029385549108524922 0.0
0.01669691866771047 -0.012517243463432692 0.0
0.008796423098229875 -0.00785587085294401 0.0
0.020593790980435654 -0.006764688367867103 0.0
0.015545146424778243 -0.042001613626204665 0.0
0.015942597981489465 -0.03164157253593275 0.0
0.015230808125021495 -0.04656933630408641 0.0
0.015784691174220208 -0.039342178737619624 0.0
0.016156017007272275 -0.027087159685304594 0.0
0.023008786178031846 -0.02612725629801174 0.0
0.008917576516675886 -0.006033338733060763 0.0
0.01880104015067857 -0.03652440930748667 0.0
0.017588110779216234 -0.04317189221759745 0.0
0.019415932235699415 -0.03297860025030816 0.0
0.013944535168933642 -0.03554177325475988 0.0
0.01431059730403797 -0.04251988313709858 0.0
0.013918788255917346 -0.03179871471266588 0.0
0.016248263687193395 -0.047533968254346165 0.0
0.014328581530780461 -0.04461132056186024 0.0
0.010454315256391688 -0.033174746189954724 0.0
0.010077877268912473 -0.02916024000668328 0.0
0.017425146062392812 -0.04644315757907824 0.0
0.015257447882749072 -0.04796841272251465 0.0
0.012439544497486478 -0.020021968558463728 0.0
0.013842098184423729 -0.022099884552103887 0.0
0.013679734195589634 -0.01717220266414412 0.0
0.013058772758318635 -0.046058608415436575 0.0
0.01390655846666321 -0.02700752319280017 0.0
0.00783261747540423 -0.03577423554016675 0.0
0.008715408970882589 -0.038957797523246414 0.0
0.014887727406320564 -0.047991335886741704 0.0
0.022592955153502663 -0.03139865481240479 0.0
0.019728776367307934 -0.04212394569023224 0.0
0.011456745329758943 -0.04183177077316769 0.0
0.010913761466711415 -0.03910564122944638 0.0
0.009499350769646961 -0.022838857019901997 0.0
0.02510862386712387 -0.006198418853836301 0.0
0.005095715300673256 -0.008100409239986884 0.0
0.015670504940803454 -0.016913150320412282 0.0
0.015414505287945319 -0.04725847246517557 0.0
0.014514052476504597 -0.04636884168906992 0.0
0.014184618467449681 -0.04691212588984038 0.0
0.01313436643840545 -0.007819945988810525 0.0
0.013420407597944675 -0.04758906713966171 0.0
0.02444328511531604 -0.016975450896781697 0.0
0.01415099456016448 -0.02222313261442631 0.0
0.019542405346379417 -0.011572541258026009 0.0
0.01347992108715459 -0.04672899754236579 0.0
0.014316846897480272 -0.039079015734180614 0.0
0.014507248839950266 -0.04496075993579265 0.0
0.01427580585089811 -0.0360292869959395 0.0
0.009613771741598217 -0.020376461309537713 0.0
0.009804398711029916 -0.02840312352212015 0.0
0.00949651427588916 -0.023893198786147166 0.0
0.012271006929146615 -0.04384822597582612 0.0
0.011701303250344 -0.0415576464070952 0.0
0.015056180094301475 -0.0475274357779086 0.0
0.011828297027350429 -0.04617504147292559 0.0
0.020517437064508964 -0.019053677313977953 0.0
0.02086652687190375 -0.0272457777558026 0.0
0.019035280775952776 -0.03938922262538047 0.0
0.014378608608057777 -0.0472707271066468 0.0
0.01657781208530054 -0.04657145392373595 0.0
0.004915714308015717 -0.02233384091728686 0.0
0.009058033859674028 -0.01865257218528299 0.0
0.009516864280363194 -0.01603010770479071 0.0
0.01731493082753275 -0.02452404003804732 0.0
0.016342574137452628 -0.04042941172468303 0.0
0.016728937314775923 -0.03754996727875243 0.0
0.015742277070556285 -0.045719529016850724 0.0
0.018306850585574574 -0.042181873483984014 0.0
0.013470165873244087 -0.040591949522423024 0.0
0.014089472050606625 -0.04585409235832895 0.0
0.013313464331369458 -0.03770599702393653 0.0
0.02431320835138541 -0.010756764198107446 0.0
0.01474115956319799 -0.04776569399805208 0.0
0.017233713646864636 -0.03745227097017843 0.0
0.017537733881603706 -0.03434347093840865 0.0
0.016374461888889507 -0.04400373833767817 0.0
0.015932371874844004 -0.043318913734134705 0.0
0.010926406454465035 -0.0447636947949021 0.0
0.015033913229707105 -0.04809064750590384 0.0
0.016275478607636836 -0.04091044843633784 0.0
0.01698419581137107 -0.029385627097914847 0.0
0.016924227903181297 -0.019783040880329103 0.0
0.019817245910990582 -0.04167085413304539 0.0
0.009219446148762932 -0.010871962955136311 0.0
0.020204849107947967 -0.010301066059143825 0.0
0.021910198892092423 -0.03525271848212728 0.0
0.008189137604679484 -0.017961541743080546 0.0
0.013646081038750538 -0.047482126949766036 0.0
0.020454450553706063 -0.015683009610588168 0.0
0.0197253815576724 -0.01597795849583788 0.0