<VTKFile type="UnstructuredGrid"  version="0.1">
<UnstructuredGrid>
<Piece NumberOfPoints="713" NumberOfCells="1304">
<Points>
<DataArray type="Float64" NumberOfComponents="3" format="ascii">
0.0 0.0 0.0
10.0 0.0 0.0
10.0 2.0 0.0
5.0 2.0 0.0
0.0 2.0 0.0
0.199999999999856 0.0 0.0
0.3999999999996677 0.0 0.0
0.5999999999994683 0.0 0.0
0.7999999999993286 0.0 0.0
0.9999999999991888 0.0 0.0
1.199999999999033 0.0 0.0
1.399999999998576 0.0 0.0
1.599999999997992 0.0 0.0
1.799999999997408 0.0 0.0
1.999999999996825 0.0 0.0
2.199999999996241 0.0 0.0
2.399999999995657 0.0 0.0
2.599999999995073 0.0 0.0
2.79999999999449 0.0 0.0
2.999999999993906 0.0 0.0
3.199999999993322 0.0 0.0
3.399999999992738 0.0 0.0
3.599999999992154 0.0 0.0
3.799999999991571 0.0 0.0
3.999999999991022 0.0 0.0
4.199999999991187 0.0 0.0
4.399999999991491 0.0 0.0
4.599999999991795 0.0 0.0
4.799999999992099 0.0 0.0
4.999999999992403 0.0 0.0
5.199999999992706 0.0 0.0
5.39999999999301 0.0 0.0
5.599999999993313 0.0 0.0
5.799999999993618 0.0 0.0
5.999999999993922 0.0 0.0
6.199999999994227 0.0 0.0
6.39999999999453 0.0 0.0
6.599999999994833 0.0 0.0
6.799999999995138 0.0 0.0
6.999999999995442 0.0 0.0
7.199999999995747 0.0 0.0
7.39999999999605 0.0 0.0
7.599999999996353 0.0 0.0
7.799999999996658 0.0 0.0
7.999999999996962 0.0 0.0
8.199999999997265 0.0 0.0
8.399999999997569 0.0 0.0
8.599999999997873 0.0 0.0
8.799999999998176 0.0 0.0
8.99999999999848 0.0 0.0
9.199999999998786 0.0 0.0
9.399999999999089 0.0 0.0
9.599999999999392 0.0 0.0
9.799999999999697 0.0 0.0
10.0 0.1999999999996293 0.0
10.0 0.3999999999991157 0.0
10.0 0.5999999999985328 0.0
10.0 0.7999999999979498 0.0
10.0 0.9999999999973885 0.0
10.0 1.199999999997894 0.0
10.0 1.39999999999842 0.0
10.0 1.599999999998947 0.0
10.0 1.799999999999474 0.0
9.799999999999999 2.0 0.0
9.6 2.0 0.0
9.399999999999999 2.0 0.0
9.2 2.0 0.0
8.999999999999998 2.0 0.0
8.799999999999999 2.0 0.0
8.599999999999998 2.0 0.0
8.399999999999999 2.0 0.0
8.2 2.0 0.0
7.999999999999998 2.0 0.0
7.799999999999999 2.0 0.0
7.599999999999999 2.0 0.0
7.399999999999999 2.0 0.0
7.199999999999999 2.0 0.0
7.0 2.0 0.0
6.799999999999999 2.0 0.0
6.6 2.0 0.0
6.399999999999999 2.0 0.0
6.199999999999999 2.0 0.0
5.999999999999999 2.0 0.0
5.8 2.0 0.0
5.6 2.0 0.0
5.399999999999999 2.0 0.0
5.199999999999999 2.0 0.0
4.8 2.0 0.0
4.6 2.0 0.0
4.399999999999999 2.0 0.0
4.199999999999998 2.0 0.0
3.999999999999999 2.0 0.0
3.799999999999999 2.0 0.0
3.599999999999999 2.0 0.0
3.399999999999999 2.0 0.0
3.199999999999998 2.0 0.0
2.999999999999999 2.0 0.0
2.799999999999999 2.0 0.0
2.599999999999999 2.0 0.0
2.399999999999999 2.0 0.0
2.199999999999999 2.0 0.0
2.0 2.0 0.0
1.799999999999999 2.0 0.0
1.599999999999999 2.0 0.0
1.399999999999999 2.0 0.0
1.199999999999999 2.0 0.0
0.9999999999999991 2.0 0.0
0.7999999999999998 2.0 0.0
0.5999999999999996 2.0 0.0
0.3999999999999995 2.0 0.0
0.1999999999999993 2.0 0.0
0.0 1.799999999999167 0.0
0.0 1.6 0.0
0.0 1.400000000001387 0.0
0.0 1.200000000002774 0.0
0.0 1.000000000004117 0.0
0.0 0.8000000000033287 0.0
0.0 0.6000000000024965 0.0
0.0 0.4000000000016644 0.0
0.0 0.200000000000832 0.0
1.499207686858938 0.9671416246672391 0.0
2.690335006295381 0.9619521672166851 0.0
3.892537609238439 1.007271393615351 0.0
8.916602958236062 0.9848120741100651 0.0
7.714518201951718 1.024234589865042 0.0
6.514518201951581 1.024234589865268 0.0
5.299999999999998 1.000000000000349 0.0
0.7620577975594133 1.201991596673393 0.0
4.61755859746166 1.240410629378135 0.0
2.099999999996533 0.6749999999988996 0.0
3.289480163184942 0.6802242156869155 0.0
8.299999999999976 1.325000000000064 0.0
7.110519836808121 1.319775784312006 0.0
5.893184537067197 1.292851873188582 0.0
3.268568008578649 1.341967835735878 0.0
2.118368267083699 1.321829331075689 0.0
5.930896443153832 0.6493414313150682 0.0
7.106926174231782 0.6329785805444448 0.0
8.306926174233002 0.6329785805444098 0.0
4.427960725065653 0.6389803625370323 0.0
0.9828791719046732 0.6520555711814596 0.0
9.383333333333349 0.6166666666667164 0.0
9.383333333333326 1.383333333333367 0.0
4.974443803660211 0.5526668589022862 0.0
1.248084267804327 1.464555585366204 0.0
4.139486343919472 1.468449088519687 0.0
5.077806736162063 1.478342020848787 0.0
1.629462398503482 0.5098631373669138 0.0
2.579462070540726 0.5133714280880515 0.0
3.770778974032556 0.5099482598296803 0.0
8.764748922637567 1.526880805960684 0.0
7.820537929455645 1.486628571911716 0.0
6.632254923791462 1.492045881343967 0.0
2.796478414430566 1.477149214423874 0.0
6.403521585563812 0.5228507855762514 0.0
7.603521585564883 0.5228507855756581 0.0
8.783559188644787 0.5066440811355862 0.0
0.5060338924245764 0.5082251307884346 0.0
5.451633334958382 0.4799315318847731 0.0
1.683269995544083 1.547372422998862 0.0
0.448590368789599 1.551409631210402 0.0
5.545526974704655 1.582008455135239 0.0
3.666056976948354 1.56999765613834 0.0
0.4385739326402744 0.9352922270094057 0.0
9.58170539854767 0.9922137522194456 0.0
4.93200119575972 0.9247090920592975 0.0
6.20679636316332 1.642443126922768 0.0
7.418963044745086 1.587405313446662 0.0
2.98103695524982 0.412594686552066 0.0
2.420975602092416 1.592770352831584 0.0
7.97902439790374 0.4072296471687943 0.0
6.779024397902082 0.4072296471687297 0.0
1.130444757308209 0.9859238872709168 0.0
0.8901814758011342 1.60566856081121 0.0
4.263670373274499 0.9915754392410991 0.0
3.096698167273431 1.009056907826855 0.0
6.088506433998166 0.9857489435828969 0.0
1.902225037409936 1.003483800311746 0.0
7.288506433998439 0.9857489435828686 0.0
8.498964973312972 1.005823551167602 0.0
2.307571737417198 1.008136792450924 0.0
8.100397971125554 1.000138280273345 0.0
6.900397971125225 1.000138280273792 0.0
3.499307350770321 0.9996496628144824 0.0
5.703656022566558 0.9885479657552226 0.0
4.719420624357892 1.622286409566126 0.0
4.099803549896894 0.3600308081356619 0.0
1.286100671532495 0.3637431910670685 0.0
9.120549139677793 1.655065205594329 0.0
9.11726214008418 0.3400668903113251 0.0
4.642568097328033 0.3514924793220939 0.0
9.630437629189052 0.3309104953729904 0.0
9.674493769554315 1.668196579944218 0.0
1.936458797611609 0.3337070483410596 0.0
3.461817573918652 0.3447876019040473 0.0
8.440152788772068 1.649667667046397 0.0
6.973083089482548 1.643748677366674 0.0
3.126874515006838 1.659115470008545 0.0
6.070607878384977 0.3410183041038941 0.0
7.255014454789089 0.32792256737713 0.0
8.462493615948901 0.3368393217476116 0.0
9.236261261261264 0.9276047786917867 0.0
5.885444386845415 1.667751020273455 0.0
0.8062340689595878 0.3261579034781319 0.0
2.29463843780282 0.308358158429197 0.0
8.10536156219338 1.691641841570632 0.0
4.041916759198581 0.7211683801597477 0.0
1.324377365289917 0.710525897087282 0.0
9.023167917315867 1.292262965009952 0.0
2.044244009166302 1.693807225416931 0.0
0.7675765545556328 0.8969765944392112 0.0
2.86965991063896 0.7069213925303978 0.0
6.330340089355722 1.293078607468788 0.0
7.530340089355831 1.29307860746885 0.0
2.509347777214458 1.27231292939881 0.0
7.890652222779963 0.7276870706009825 0.0
6.690652222780154 0.7276870706013264 0.0
4.380959112578968 1.65866292149053 0.0
0.3278422400819535 1.233362752678148 0.0
5.754468991464942 0.3469215055361071 0.0
9.69195804401614 0.7000195364707393 0.0
9.691250997975434 1.303243780084337 0.0
5.54324561063747 1.237401556904767 0.0
9.044596057577811 0.6843248705785732 0.0
5.208929198448351 0.3519433027337513 0.0
3.708880196230617 1.249762029554333 0.0
1.713349558540635 1.234899745098077 0.0
4.586522821995393 0.9261740906803194 0.0
5.241145838821565 0.7007005766013242 0.0
1.434457446926135 1.701926055218157 0.0
0.2821921707428039 0.3393165318407161 0.0
3.42846431357046 1.714274134409306 0.0
5.26283485467567 1.710141275531951 0.0
3.966530105129177 1.718376080180638 0.0
4.891301048299285 1.259923533724591 0.0
0.2787500712946937 0.6906723798523376 0.0
1.822166578929051 0.7301892210727335 0.0
8.593276160688786 1.287322908694633 0.0
2.386017956680413 0.7288816957021155 0.0
3.576911792171353 0.7225526638483954 0.0
8.013982043315597 1.271118304297217 0.0
6.82303669320588 1.277631295759485 0.0
2.891837633696712 1.215141906356511 0.0
8.708162366297856 0.7848580936429009 0.0
7.496736072543097 0.7897651325976158 0.0
6.296736072542775 0.7897651325982009 0.0
5.523181420933933 0.7588744249744506 0.0
4.725538117155759 0.6529070682798582 0.0
2.736307197014292 0.273961667653487 0.0
7.663692802980817 1.726038332346062 0.0
6.446842959287713 1.783714797320288 0.0
1.126188383272983 1.743715177525389 0.0
2.64757240694847 1.787239829472812 0.0
6.546646507559373 0.2589894635657943 0.0
7.746646507561152 0.2589894635657218 0.0
4.079302268890254 1.221431431691139 0.0
4.433746883463333 0.2983726043497702 0.0
1.032697650548726 1.318076986199429 0.0
1.309492735411376 1.208980965369829 0.0
3.896105387998365 0.2579746081881307 0.0
9.378751775005455 1.725996478164223 0.0
9.3965279828929 0.2649862374471925 0.0
1.515757555362918 0.2603060454608533 0.0
4.959097093232828 1.726144293543605 0.0
4.912501341257775 0.2529154558175828 0.0
4.342421824442713 1.285376618065631 0.0
7.023506283123107 0.293611963231815 0.0
8.215829626877609 0.2682061590942965 0.0
5.28145265730745 1.291130016052329 0.0
8.693992162747364 1.744100892812201 0.0
0.6256567126095668 1.775064851453201 0.0
0.2724967459749605 1.756941612685287 0.0
8.90781713264278 0.2741674349222226 0.0
7.184202236567151 1.709454269177068 0.0
3.212962614055919 0.2641656831057426 0.0
0.6761590188374282 0.6746441670621973 0.0
1.020489328989316 0.2487299689497893 0.0
1.485017749467193 1.402133856149482 0.0
6.734223224917944 1.790518105434539 0.0
2.657549589911705 0.7636227781082678 0.0
6.542590471647475 1.237213715285722 0.0
7.742745187066703 1.235538225115726 0.0
0.5794341726414672 0.2480285055479751 0.0
1.842901067642841 1.760146518280044 0.0
3.84389577648662 0.7524680119172447 0.0
3.061589173628368 1.407936939342627 0.0
6.144447294584154 0.5911674363009913 0.0
7.344447294585433 0.5911674362995804 0.0
8.544447294586682 0.5911674362982269 0.0
5.491507940982565 0.1734458797927824 0.0
[...]
<PointData Vectors="fields">
<DataArray type="Float64" Name="U" NumberOfComponents="3" format="ascii">
0.0 0.0 0.0
0.03361465790557561 0.0 0.0
0.0029449211406526285 -0.005937277863597266 0.0
0.016818889394222183 -0.05351656498278476 0.0
0.03069946279854899 -0.005903713777887687 0.0
0.00034535501997148615 -0.006428816140520289 0.0
0.0010450901141831218 -0.010577743285411603 0.0
0.0016811481784320989 -0.014247496829863803 0.0
0.002226393132758177 -0.01746989139967417 0.0
0.002713417550928482 -0.020541490981042066 0.0
0.003190820166533088 -0.023488122559766688 0.0
0.003675463549444371 -0.02631924755034373 0.0
0.004207839325823909 -0.02904960599632694 0.0
0.00475600024105626 -0.031679748264335075 0.0
0.00534239449309975 -0.03417980286033481 0.0
0.005951790930403272 -0.03655033717865565 0.0
0.006608313116828598 -0.038793692245617704 0.0
0.007268450617390259 -0.04089239105916939 0.0
0.007986019928786165 -0.04284759725362673 0.0
0.008692544231083888 -0.04465322708119284 0.0
0.0094474018577666 -0.0463026652432461 0.0
0.010197202973347056 -0.04778364844573395 0.0
0.010981206472787207 -0.04910912427200917 0.0
0.011768988151766635 -0.050236263116284416 0.0
0.012565939310688765 -0.05124704760886607 0.0
0.013398680429298333 -0.052061749294250066 0.0
0.014228050205923885 -0.052693904530048 0.0
0.015088520261060863 -0.053154646371638005 0.0
0.015940815270685756 -0.05342350621117054 0.0
0.01683117399848362 -0.05351759651631537 0.0
0.017697757300603547 -0.05342709390862664 0.0
0.018561863683374747 -0.05314746365505144 0.0
0.019418528525142323 -0.052687124162803564 0.0
0.020260873740979016 -0.052039921912212794 0.0
0.021077969857867033 -0.051219967114781655 0.0
0.021911898179272228 -0.05023375091303383 0.0
0.02270226404085928 -0.049026070245303394 0.0
0.023496623011195077 -0.04770388696084422 0.0
0.024257250004969727 -0.04620987512178368 0.0
0.02501961900894184 -0.04452829008207947 0.0
0.025740588707552817 -0.04269481318908301 0.0
0.026436520602552915 -0.04071813332839712 0.0
0.027084097948323158 -0.038565500326624806 0.0
0.027716629971351294 -0.03632711752398552 0.0
0.02829970975956042 -0.03395433747522025 0.0
0.028858629617003046 -0.03145179493582931 0.0
0.029369897990115988 -0.02883040633949909 0.0
0.029855343431127133 -0.026118610249819665 0.0
0.03029519357484584 -0.023307539045189115 0.0
0.030740039524694562 -0.020393083818822287 0.0
0.03117305979842778 -0.01737866147296052 0.0
0.03165161762562865 -0.014201679702167982 0.0
0.032180359458152535 -0.010764670570279404 0.0
0.032996599603299766 -0.006694145625442526 0.0
0.028503266834844842 -0.002340538764013583 0.0
0.02515660026073257 -0.0036271740020528205 0.0
0.022109818612049584 -0.004444916775076139 0.0
0.019303518851800174 -0.0050620465669992025 0.0
0.016577963887264433 -0.005449818447046541 0.0
0.01389979829504171 -0.005702268269785239 0.0
0.011223840400042248 -0.005854671300304776 0.0
0.008509565362065801 -0.005922963527861939 0.0
0.005748763523703623 -0.005937082980091181 0.0
0.0029429672114378662 -0.008751095528781767 0.0
0.0029506226154611265 -0.01159992909298325 0.0
0.0030014984344536944 -0.014491055876801722 0.0
0.0031185349664754917 -0.017410965508370575 0.0
0.003312282544736923 -0.02032007939799697 0.0
0.0035758188767506284 -0.02318166375296865 0.0
0.003912707906921442 -0.02600678623364025 0.0
0.004308793971915947 -0.02873547439919857 0.0
0.0047655673172118905 -0.03136585724340718 0.0
0.005288630927902641 -0.03389343402406762 0.0
0.0058386014177427515 -0.03629174157917651 0.0
0.006461030132329964 -0.03856465409001401 0.0
0.007095057279982528 -0.04069803892757772 0.0
0.007794197674729325 -0.04268393715071447 0.0
0.008518979180099284 -0.0445228003421248 0.0
0.009276540643259713 -0.04620090877724974 0.0
0.010043200669203556 -0.047677584459401734 0.0
0.010851029913881625 -0.049057674059246936 0.0
0.011675160704922775 -0.05022181923668442 0.0
0.012491788160553689 -0.0512180383047146 0.0
0.013342118279298203 -0.05204703200066698 0.0
0.014217904585833557 -0.052687150067041 0.0
0.01506346806188099 -0.05314502356318909 0.0
0.015947776130490317 -0.053424409084806994 0.0
0.017707257068311208 -0.053410757461141406 0.0
0.018553026931044728 -0.05314006156504533 0.0
0.019385944283991523 -0.052691148011562404 0.0
0.02023162420186411 -0.0520725688248019 0.0
0.021062930467473734 -0.05125267990168989 0.0
0.021886912133430768 -0.0502622719235535 0.0
0.022654826827320236 -0.04911051729101076 0.0
0.023431341385391345 -0.047787920799234884 0.0
0.02418376167952666 -0.0463090664700955 0.0
0.024928465556582072 -0.044662951672545415 0.0
0.025628056987911613 -0.04282328145064188 0.0
0.026324814098530158 -0.04089154905399678 0.0
0.026976592562655347 -0.038775152727240664 0.0
0.027593780006671714 -0.03651646454026726 0.0
0.028194722720845028 -0.03412088685339934 0.0
0.02874265273655695 -0.031593804873078446 0.0
0.029225019468745693 -0.0289547504030793 0.0
0.02966986517724478 -0.026197184908120428 0.0
0.03003079184271973 -0.023355258841802062 0.0
0.03031873755545795 -0.020439621036672982 0.0
0.030517538405174384 -0.017496568916787907 0.0
0.030634792670136326 -0.014540422159663335 0.0
0.03069163031261427 -0.011619362459352953 0.0
0.03070416989969919 -0.008738550694243839 0.0
0.02787148941604268 -0.005905567637539251 0.0
0.02508951157632189 -0.00589229903843388 0.0
0.022364657163239102 -0.005825756295648166 0.0
0.019673512636828164 -0.005669056928737651 0.0
0.016994483133068967 -0.005376670209599104 0.0
0.01426202495009589 -0.004960796452533367 0.0
0.011436808822927393 -0.00429991902995959 0.0
0.008373539538726639 -0.003396030685062134 0.0
0.004725489410018626 -0.0019091959201453963 0.0
0.01639687525326461 -0.027838286457944193 0.0
0.016442953403026556 -0.04210714998362416 0.0
0.016835201751783525 -0.05110779486636921 0.0
0.016878363409310152 -0.021675071352755586 0.0
0.01654332612949857 -0.03757660926662357 0.0
0.01663872498997938 -0.04867346945611679 0.0
0.01680378079912487 -0.05370425075979864 0.0
0.01963944845715953 -0.01695110074827216 0.0
0.0172006924511127 -0.0535500069748016 0.0
0.013266900939895366 -0.03561874301802004 0.0
0.014614238629854396 -0.04729528877239954 0.0
0.01291202069714893 -0.03026938927267271 0.0
0.01409376636063634 -0.04382094854549429 0.0
0.015702375446510486 -0.052042308440778055 0.0
0.01916781190990101 -0.04714008183459711 0.0
0.020213355554044462 -0.03580565096145319 0.0
0.018163855699725118 -0.051868971855469875 0.0
0.019869195083704796 -0.043860096693979764 0.0
0.021181790510270245 -0.030245611739916977 0.0
0.015946012552184093 -0.05311324031912488 0.0
0.01224319501363236 -0.02035263903545705 0.0
0.021823147760365237 -0.01453580365168685 0.0
0.011495973864015838 -0.01471969510392785 0.0
0.01676289550453007 -0.05382951726484381 0.0
0.022747245757969162 -0.024177186549220513 0.0
0.018502948529467808 -0.05212695206654007 0.0
0.016645151954604122 -0.05380133913047728 0.0
0.010835241292200407 -0.029611681923466027 0.0
0.012233946442552388 -0.04091946077097598 0.0
0.014331238331786478 -0.05037646083003968 0.0
0.00999061430417317 -0.023801609513960858 0.0
0.011566857815153821 -0.036256328421272056 0.0
0.013484796671642926 -0.04774730549588896 0.0
0.020897257862868775 -0.043057676952133604 0.0
0.01955729806379335 -0.04930880216859359 0.0
0.02159533123268112 -0.0387717382745583 0.0
0.023189739944240565 -0.023650536913387418 0.0
0.010127977054763353 -0.012691079083249245 0.0
0.017814770647850472 -0.05333514881106069 0.0
0.023304870052784865 -0.030225609900439012 0.0
0.02439348155637995 -0.012299334568645931 0.0
0.015455418782170788 -0.05309675329973939 0.0
0.019937858451254436 -0.049753367700967194 0.0
0.016184134865132132 -0.011834012593751329 0.0
0.016626105730117104 -0.01156836490228039 0.0
0.01678685610197383 -0.05391585001099278 0.0
0.01354541869666595 -0.05040835039691023 0.0
0.01118742903021586 -0.04069953467440938 0.0
0.0121047055907275 -0.04470600138819849 0.0
0.02263961884207786 -0.03920201668719113 0.0
0.023446624704989306 -0.03437124357744849 0.0
0.02108834217105093 -0.04659386531927143 0.0
0.016689977601376367 -0.022533071237535056 0.0
0.024907430466446966 -0.018878210176163434 0.0
0.01678366990114503 -0.052667669805697544 0.0
0.016862246151330806 -0.045804512002717644 0.0
0.016859906553966294 -0.05118276403698417 0.0
0.01681283219678876 -0.03319078433771591 0.0
0.016920373386171743 -0.04214487164056375 0.0
0.01668540410333842 -0.027634284303219816 0.0
0.01685480622379812 -0.03805317688513555 0.0
0.016785239368776184 -0.03291137322919041 0.0
0.01678488806518545 -0.04572326330207814 0.0
0.01679697542844621 -0.0488243694921642 0.0
0.01682566986961831 -0.05276609810168145 0.0
0.017562087960456496 -0.053588597368192506 0.0
0.014402829287299407 -0.0519086324777569 0.0
0.0084898072670709 -0.02484401384688724 0.0
0.007997007202847151 -0.018613826392692375 0.0
0.02582414431160461 -0.01871756887608561 0.0
0.015830432585695282 -0.05346422321464371 0.0
0.0261427034631549 -0.010279366925685884 0.0
0.007587910955813148 -0.010516220450381477 0.0
0.009176145615792518 -0.03355190361678049 0.0
0.012703338544931553 -0.04843013235442012 0.0
0.00878132528621822 -0.028310513812009233 0.0
0.011617288615993721 -0.04496105928373709 0.0
0.021749659701054462 -0.04591662354388588 0.0
0.019766028558538047 -0.0511116944240894 0.0
0.022826525031827093 -0.04234694590869993 0.0
0.025074964607078004 -0.028119506951534406 0.0
0.01755746374339275 -0.016874090497095793 0.0
0.014299957034368038 -0.05193797622619066 0.0
0.007403189720560442 -0.01764545604262334 0.0
0.009628391650187895 -0.03778759994752791 0.0
0.0087854762700755 -0.03270413255790291 0.0
0.015701786923874535 -0.05178486651350461 0.0
0.013136645663870761 -0.025399295241685264 0.0
0.01285012699852872 -0.020076423735886764 0.0
0.024457351139376714 -0.03481211278884124 0.0
0.015603224379385262 -0.01701015872752742 0.0
0.014355012754917967 -0.043801874702909825 0.0
0.015184233422122023 -0.04983441128368656 0.0
0.013918543090756156 -0.0396056790190622 0.0
0.019365925103966324 -0.040224848726717596 0.0
0.019757688819587733 -0.03550277756789724 0.0
0.01866294584129513 -0.04737888053092869 0.0
0.018547800350683603 -0.05287137064642947 0.0
0.020158774131539707 -0.010365955176530389 0.0
0.01889912455892361 -0.052426190375039226 0.0
0.02059062332337498 -0.009554764724314619 0.0
0.012498073441612143 -0.010146282970242372 0.0
0.01625684286005372 -0.053206845833147734 0.0
0.020872758484819055 -0.019798286886086803 0.0
0.01739854350081581 -0.05365589567916629 0.0
0.018121049203759246 -0.0501036774821324 0.0
0.01954349569685832 -0.0307059223790033 0.0
0.016685125509613947 -0.05351335877833147 0.0
0.017113468003106338 -0.0537543250710972 0.0
0.025598985227761304 -0.026782027613776446 0.0
0.007488875134525582 -0.008519485733020523 0.0
0.02139313562213298 -0.04816087068955242 0.0
0.016013356347781393 -0.05356312817727064 0.0
0.019919140367904466 -0.05129597894069103 0.0
0.016928176585289625 -0.053851752377959444 0.0
0.012836550689930948 -0.00900635608058831 0.0
0.013659685611295967 -0.032165853277812156 0.0
0.01316398153947878 -0.026272956567143672 0.0
0.014098272801439856 -0.038909587281673194 0.0
0.015209893371819353 -0.04929535393659077 0.0
0.013761147369486467 -0.03395826570287207 0.0
0.014744442237585685 -0.04633177184274509 0.0
0.018558119714658754 -0.04400078573211117 0.0
0.019479432758195893 -0.02472068228761111 0.0
0.01882873791856205 -0.03997816345240786 0.0
0.01791799390951364 -0.05002735234235304 0.0
0.01733540611051039 -0.05325463286934818 0.0
0.016406362695806007 -0.05369411945501064 0.0
0.010331574159670343 -0.04239562073160461 0.0
0.009261807791372713 -0.0379903628000783 0.0
0.012043907427505359 -0.04888765035494043 0.0
0.026562442646602936 -0.022349933844593193 0.0
0.024067311543641987 -0.041481278896479505 0.0
0.02154429721505397 -0.048247032351936475 0.0
0.024661696220390914 -0.037073689876744066 0.0
0.01765384507059623 -0.051944314041883356 0.0
0.01512370958914817 -0.05298447304448339 0.0
0.021017404014367202 -0.02103358726181463 0.0
0.019461863212336717 -0.025110252000447413 0.0
0.013392298733290094 -0.050928112274068287 0.0
0.006872550838364877 -0.014813811143474215 0.0
0.02721521032071111 -0.014314283561380443 0.0
0.007464430603301193 -0.02803152560795271 0.0
0.016943393572115384 -0.053709260837384365 0.0
0.016540965507771663 -0.05367846600960803 0.0
0.01759840654865467 -0.052881595758179044 0.0
0.022567267093890325 -0.0444901164678785 0.0
0.025523275264171266 -0.031356916585841804 0.0
0.016456101978776835 -0.05369498052853122 0.0
0.007224095722338548 -0.0247605790350479 0.0
0.027407655850229896 -0.014935797452716965 0.0
0.027257508245964145 -0.009766581251251107 0.0
0.026561459806595033 -0.021835571735655007 0.0
0.010540886076729213 -0.04299611596263492 0.0
0.011502735210171672 -0.04656158279356681 0.0
0.012555898304241291 -0.015545802416312805 0.0
0.006478903116581774 -0.02092854741847225 0.0
0.02174202757645246 -0.027554047703736727 0.0
0.011103141886001082 -0.046833465567726267 0.0
0.014643874470497292 -0.041766022817833426 0.0
0.015286790763537329 -0.04845850924864491 0.0
0.014329598516844228 -0.03722414772384891 0.0
0.00597238480245124 -0.013919024125774029 0.0
0.02563858154880249 -0.03225041817968895 0.0
0.01562854205572131 -0.05083113223315128 0.0
0.0199199470460242 -0.04545192640936173 0.0
0.018736630619296084 -0.050824597632810734 0.0
0.02054814378166691 -0.041531367231528775 0.0
0.02188501257039761 -0.027022042083541878 0.0
0.01856407180985547 -0.05308807651297848 0.0
0.014071750703096238 -0.02873098194929329 0.0
0.023108405532393433 -0.04421418118783134 0.0
0.024215248626319377 -0.04030604526859041 0.0
0.020819398959863764 -0.05008224862086975 0.0
0.023134249800853286 -0.01572899239622775 0.0
0.014124542184233056 -0.014684113774584392 0.0
0.01463340697205149 -0.052582963234276484 0.0
0.01870005272480127 -0.050952800658580336 0.0
0.009077162664066609 -0.040067214354997036 0.0
0.007996194055140078 -0.03530539037821496 0.0
0.018250987576396243 -0.0525622349934583 0.0
0.013737088566346919 -0.02367206663115911 0.0
0.022551735524823924 -0.033790125582940665 0.0
0.019117380594928384 -0.013651058850344226 0.0
0.019497677870057982 -0.05217743436714006 0.0
0.02361319544616784 -0.00810316480310746 0.0
0.012549895320395847 -0.04962018498494799 0.0
0.007449506265610726 -0.031109258984256257 0.0
0.01780198912435018 -0.053314949960926714 0.0
0.01320461903278439 -0.05102544455573363 0.0
0.019156896323629748 -0.048952085284280585 0.0
0.0250991497819156 -0.03757416849423768 0.0
0.0167820983120825 -0.05389432350259543 0.0
0.017320326404779977 -0.009000087992671175 0.0
0.01565751961091004 -0.05280040284954487 0.0
0.0164538011041493 -0.05203633199770096 0.0
0.01566331118761934 -0.030305874972367038 0.0
0.015976184039707256 -0.04383741986109307 0.0
0.015763367132083907 -0.03563137636651441 0.0
0.01612979772781198 -0.047294968727566215 0.0
0.006398154331020376 -0.021179389538710153 0.0
0.017825480205628453 -0.00834509774411828 0.0
0.020946511258020883 -0.05005884476061162 0.0
0.016833378924841446 -0.053895863887690854 0.0
0.01629183636649579 -0.053684671420111095 0.0
0.01327392066361745 -0.01191710454102246 0.0
0.02726057873443873 -0.02478348633389403 0.0
0.021270258218172966 -0.03314546292470729 0.0
0.021159375034617844 -0.037935498794697736 0.0
0.019763351597934308 -0.04582972519758369 0.0
0.013224122760607911 -0.04184348718811891 0.0
0.013840261421102618 -0.04567351823636042 0.0
0.015038582333065249 -0.05110390419035696 0.0
0.007852374704382962 -0.03563696026464875 0.0
0.006985531504134114 -0.03031946263421178 0.0
0.014025153693574087 -0.04917115609354764 0.0
0.012062800194428954 -0.03858168943086155 0.0
0.012749945857487833 -0.04292272151704003 0.0
0.019295902514024917 -0.03330403033469475 0.0
0.018834794347502123 -0.013831709476360735 0.0
0.010029348322205235 -0.008627592120457083 0.0
0.023182874708523708 -0.007440343642276331 0.0
0.017598740569032302 -0.04726296270419812 0.0
0.018019947693738887 -0.0358249732237148 0.0
0.01727051532106405 -0.0519430053125739 0.0
0.01781021402446084 -0.043777187884887415 0.0
0.018218559872862125 -0.030084722255563693 0.0
0.025892004743254753 -0.029630807044208153 0.0
0.010141321131542758 -0.00687921496947026 0.0
0.021165445884141508 -0.041237459178945134 0.0
0.01987714846439339 -0.04806650535652326 0.0
0.021836602726791204 -0.03666637070262637 0.0
0.01583308044609381 -0.04015697917482085 0.0
0.016175848766734814 -0.04734136975298241 0.0
0.015719415066679968 -0.03534657983131841 0.0
0.01831320151407213 -0.05321851704156615 0.0
0.016287216705637073 -0.05010656339288139 0.0
0.0119839753434412 -0.03752427926187863 0.0
0.011431916265448745 -0.032391401541973855 0.0
0.019847230466838835 -0.05178952099197651 0.0
0.017260150427202855 -0.05369608421002881 0.0
0.0141125133939826 -0.02276348036498013 0.0
0.01567956414220675 -0.02511309952688171 0.0
0.015467136920742157 -0.01901620621840351 0.0
0.014931896844166483 -0.05166578672348144 0.0
0.01576079645493919 -0.03064251851359523 0.0
0.008898107981955929 -0.039767585291682846 0.0
0.01013233685261659 -0.0439003638307447 0.0
0.016891880645084505 -0.0537314760472333 0.0
0.02537350508594344 -0.03489211421287459 0.0
0.022259099193942297 -0.046882351879397266 0.0
0.01315733732958146 -0.04706623513005766 0.0
0.01234779450011846 -0.04350462806003649 0.0
0.01083708282448537 -0.025947105532243032 0.0
0.028196328012406784 -0.006825543834916077 0.0
0.005901198657644522 -0.008898014218375314 0.0
0.017721229899088517 -0.019236851308231526 0.0
0.017509793344415426 -0.05274714740485376 0.0
0.016494932903360706 -0.052009950324926384 0.0
0.01614789409146951 -0.05259314422608737 0.0
0.014869314342364754 -0.008593821520644248 0.0
0.015141429399829391 -0.053129340973949155 0.0
0.02755097213831209 -0.019297039995107904 0.0
0.015987670340615764 -0.024650995576053387 0.0
0.02205677687290719 -0.013188228845619349 0.0
0.015395027869929922 -0.05239042902658944 0.0
0.016253924068125338 -0.04405962736847414 0.0
0.016416000567527025 -0.05010033599103322 0.0
0.016117657299461612 -0.040073378881684156 0.0
0.01095024235798553 -0.023165612307160927 0.0
0.011222273661936481 -0.032201673238879694 0.0
0.010792194967615049 -0.026510661494622265 0.0
0.014058092462802221 -0.049267732738541924 0.0
0.013232523585443693 -0.04625614556548536 0.0
0.01707305180777859 -0.05324972363941359 0.0
0.013617349287626476 -0.05177009663400314 0.0
0.023133625725684843 -0.02165602120117186 0.0
0.023464967450935962 -0.03025866473927099 0.0
0.021431430456669627 -0.04382411212496225 0.0
0.016284108177945754 -0.05276165075220762 0.0
0.01885462571282296 -0.05194160441907985 0.0
0.005689053374362491 -0.025361888324248478 0.0
0.010310788503855263 -0.020664015809217885 0.0
0.010825810213293525 -0.01774043552734376 0.0
0.019513150105472974 -0.02722135138981244 0.0
0.018465492796779722 -0.04554140951340793 0.0
0.018854663569411446 -0.041773768468640046 0.0
0.017842081971294967 -0.050962625721534316 0.0
0.02060706838074506 -0.04745066842079278 0.0
0.015338611163468486 -0.045718730395113275 0.0
0.0159450877094104 -0.0511206545659521 0.0
0.015042613922073263 -0.04194540970564271 0.0
0.027416349608511702 -0.012268750467572411 0.0
0.01671648139747181 -0.053350816794918786 0.0
0.01944085315936841 -0.04226633177087577 0.0
0.019749016860389594 -0.03819260370479291 0.0
0.018523637365660543 -0.04900920007848531 0.0
0.018020936733799533 -0.04870001586980142 0.0
0.012346853217823597 -0.04986318880725243 0.0
0.01715175557948822 -0.053766562290882516 0.0
0.018368467997616003 -0.045531533451088665 0.0
0.019138340977516197 -0.03265358446551684 0.0
0.019081906823929032 -0.021928697522812783 0.0
0.022260652532291317 -0.04688176282493855 0.0
0.010499096150539823 -0.011990659798032996 0.0
0.022743871478618526 -0.011369658325129973 0.0
0.024606071325173944 -0.039815474404067665 0.0
0.009337446347707161 -0.02042909584019164 0.0
0.015603061062190608 -0.0531869193708888 0.0
0.023017732266221388 -0.017357776246786805 0.0
0.022254973784865253 -0.018174360656110992 0.0
0.01770309983129336 -0.05112244750359097 0.0
0.017606895584955137 -0.05352586659771646 0.0