<VTKFile type="UnstructuredGrid"  version="0.1">
<UnstructuredGrid>
<Piece NumberOfPoints="713" NumberOfCells="1304">
<Points>
<DataArray type="Float64" NumberOfComponents="3" format="ascii">
0.0 0.0 0.0
10.0 0.0 0.0
10.0 2.0 0.0
5.0 2.0 0.0
0.0 2.0 0.0
0.199999999999856 0.0 0.0
0.3999999999996677 0.0 0.0
0.5999999999994683 0.0 0.0
0.7999999999993286 0.0 0.0
0.9999999999991888 0.0 0.0
1.199999999999033 0.0 0.0
1.399999999998576 0.0 0.0
1.599999999997992 0.0 0.0
1.799999999997408 0.0 0.0
1.999999999996825 0.0 0.0
2.199999999996241 0.0 0.0
2.399999999995657 0.0 0.0
2.599999999995073 0.0 0.0
2.79999999999449 0.0 0.0
2.999999999993906 0.0 0.0
3.199999999993322 0.0 0.0
3.399999999992738 0.0 0.0
3.599999999992154 0.0 0.0
3.799999999991571 0.0 0.0
3.999999999991022 0.0 0.0
4.199999999991187 0.0 0.0
4.399999999991491 0.0 0.0
4.599999999991795 0.0 0.0
4.799999999992099 0.0 0.0
4.999999999992403 0.0 0.0
5.199999999992706 0.0 0.0
5.39999999999301 0.0 0.0
5.599999999993313 0.0 0.0
5.799999999993618 0.0 0.0
5.999999999993922 0.0 0.0
6.199999999994227 0.0 0.0
6.39999999999453 0.0 0.0
6.599999999994833 0.0 0.0
6.799999999995138 0.0 0.0
6.999999999995442 0.0 0.0
7.199999999995747 0.0 0.0
7.39999999999605 0.0 0.0
7.599999999996353 0.0 0.0
7.799999999996658 0.0 0.0
7.999999999996962 0.0 0.0
8.199999999997265 0.0 0.0
8.399999999997569 0.0 0.0
8.599999999997873 0.0 0.0
8.799999999998176 0.0 0.0
8.99999999999848 0.0 0.0
9.199999999998786 0.0 0.0
9.399999999999089 0.0 0.0
9.599999999999392 0.0 0.0
9.799999999999697 0.0 0.0
10.0 0.1999999999996293 0.0
10.0 0.3999999999991157 0.0
10.0 0.5999999999985328 0.0
10.0 0.7999999999979498 0.0
10.0 0.9999999999973885 0.0
10.0 1.199999999997894 0.0
10.0 1.39999999999842 0.0
10.0 1.599999999998947 0.0
10.0 1.799999999999474 0.0
9.799999999999999 2.0 0.0
9.6 2.0 0.0
9.399999999999999 2.0 0.0
9.2 2.0 0.0
8.999999999999998 2.0 0.0
8.799999999999999 2.0 0.0
8.599999999999998 2.0 0.0
8.399999999999999 2.0 0.0
8.2 2.0 0.0
7.999999999999998 2.0 0.0
7.799999999999999 2.0 0.0
7.599999999999999 2.0 0.0
7.399999999999999 2.0 0.0
7.199999999999999 2.0 0.0
7.0 2.0 0.0
6.799999999999999 2.0 0.0
6.6 2.0 0.0
6.399999999999999 2.0 0.0
6.199999999999999 2.0 0.0
5.999999999999999 2.0 0.0
5.8 2.0 0.0
5.6 2.0 0.0
5.399999999999999 2.0 0.0
5.199999999999999 2.0 0.0
4.8 2.0 0.0
4.6 2.0 0.0
4.399999999999999 2.0 0.0
4.199999999999998 2.0 0.0
3.999999999999999 2.0 0.0
3.799999999999999 2.0 0.0
3.599999999999999 2.0 0.0
3.399999999999999 2.0 0.0
3.199999999999998 2.0 0.0
2.999999999999999 2.0 0.0
2.799999999999999 2.0 0.0
2.599999999999999 2.0 0.0
2.399999999999999 2.0 0.0
2.199999999999999 2.0 0.0
2.0 2.0 0.0
1.799999999999999 2.0 0.0
1.599999999999999 2.0 0.0
1.399999999999999 2.0 0.0
1.199999999999999 2.0 0.0
0.9999999999999991 2.0 0.0
0.7999999999999998 2.0 0.0
0.5999999999999996 2.0 0.0
0.3999999999999995 2.0 0.0
0.1999999999999993 2.0 0.0
0.0 1.799999999999167 0.0
0.0 1.6 0.0
0.0 1.400000000001387 0.0
0.0 1.200000000002774 0.0
0.0 1.000000000004117 0.0
0.0 0.8000000000033287 0.0
0.0 0.6000000000024965 0.0
0.0 0.4000000000016644 0.0
0.0 0.200000000000832 0.0
1.499207686858938 0.9671416246672391 0.0
2.690335006295381 0.9619521672166851 0.0
3.892537609238439 1.007271393615351 0.0
8.916602958236062 0.9848120741100651 0.0
7.714518201951718 1.024234589865042 0.0
6.514518201951581 1.024234589865268 0.0
5.299999999999998 1.000000000000349 0.0
0.7620577975594133 1.201991596673393 0.0
4.61755859746166 1.240410629378135 0.0
2.099999999996533 0.6749999999988996 0.0
3.289480163184942 0.6802242156869155 0.0
8.299999999999976 1.325000000000064 0.0
7.110519836808121 1.319775784312006 0.0
5.893184537067197 1.292851873188582 0.0
3.268568008578649 1.341967835735878 0.0
2.118368267083699 1.321829331075689 0.0
5.930896443153832 0.6493414313150682 0.0
7.106926174231782 0.6329785805444448 0.0
8.306926174233002 0.6329785805444098 0.0
4.427960725065653 0.6389803625370323 0.0
0.9828791719046732 0.6520555711814596 0.0
9.383333333333349 0.6166666666667164 0.0
9.383333333333326 1.383333333333367 0.0
4.974443803660211 0.5526668589022862 0.0
1.248084267804327 1.464555585366204 0.0
4.139486343919472 1.468449088519687 0.0
5.077806736162063 1.478342020848787 0.0
1.629462398503482 0.5098631373669138 0.0
2.579462070540726 0.5133714280880515 0.0
3.770778974032556 0.5099482598296803 0.0
8.764748922637567 1.526880805960684 0.0
7.820537929455645 1.486628571911716 0.0
6.632254923791462 1.492045881343967 0.0
2.796478414430566 1.477149214423874 0.0
6.403521585563812 0.5228507855762514 0.0
7.603521585564883 0.5228507855756581 0.0
8.783559188644787 0.5066440811355862 0.0
0.5060338924245764 0.5082251307884346 0.0
5.451633334958382 0.4799315318847731 0.0
1.683269995544083 1.547372422998862 0.0
0.448590368789599 1.551409631210402 0.0
5.545526974704655 1.582008455135239 0.0
3.666056976948354 1.56999765613834 0.0
0.4385739326402744 0.9352922270094057 0.0
9.58170539854767 0.9922137522194456 0.0
4.93200119575972 0.9247090920592975 0.0
6.20679636316332 1.642443126922768 0.0
7.418963044745086 1.587405313446662 0.0
2.98103695524982 0.412594686552066 0.0
2.420975602092416 1.592770352831584 0.0
7.97902439790374 0.4072296471687943 0.0
6.779024397902082 0.4072296471687297 0.0
1.130444757308209 0.9859238872709168 0.0
0.8901814758011342 1.60566856081121 0.0
4.263670373274499 0.9915754392410991 0.0
3.096698167273431 1.009056907826855 0.0
6.088506433998166 0.9857489435828969 0.0
1.902225037409936 1.003483800311746 0.0
7.288506433998439 0.9857489435828686 0.0
8.498964973312972 1.005823551167602 0.0
2.307571737417198 1.008136792450924 0.0
8.100397971125554 1.000138280273345 0.0
6.900397971125225 1.000138280273792 0.0
3.499307350770321 0.9996496628144824 0.0
5.703656022566558 0.9885479657552226 0.0
4.719420624357892 1.622286409566126 0.0
4.099803549896894 0.3600308081356619 0.0
1.286100671532495 0.3637431910670685 0.0
9.120549139677793 1.655065205594329 0.0
9.11726214008418 0.3400668903113251 0.0
4.642568097328033 0.3514924793220939 0.0
9.630437629189052 0.3309104953729904 0.0
9.674493769554315 1.668196579944218 0.0
1.936458797611609 0.3337070483410596 0.0
3.461817573918652 0.3447876019040473 0.0
8.440152788772068 1.649667667046397 0.0
6.973083089482548 1.643748677366674 0.0
3.126874515006838 1.659115470008545 0.0
6.070607878384977 0.3410183041038941 0.0
7.255014454789089 0.32792256737713 0.0
8.462493615948901 0.3368393217476116 0.0
9.236261261261264 0.9276047786917867 0.0
5.885444386845415 1.667751020273455 0.0
0.8062340689595878 0.3261579034781319 0.0
2.29463843780282 0.308358158429197 0.0
8.10536156219338 1.691641841570632 0.0
4.041916759198581 0.7211683801597477 0.0
1.324377365289917 0.710525897087282 0.0
9.023167917315867 1.292262965009952 0.0
2.044244009166302 1.693807225416931 0.0
0.7675765545556328 0.8969765944392112 0.0
2.86965991063896 0.7069213925303978 0.0
6.330340089355722 1.293078607468788 0.0
7.530340089355831 1.29307860746885 0.0
2.509347777214458 1.27231292939881 0.0
7.890652222779963 0.7276870706009825 0.0
6.690652222780154 0.7276870706013264 0.0
4.380959112578968 1.65866292149053 0.0
0.3278422400819535 1.233362752678148 0.0
5.754468991464942 0.3469215055361071 0.0
9.69195804401614 0.7000195364707393 0.0
9.691250997975434 1.303243780084337 0.0
5.54324561063747 1.237401556904767 0.0
9.044596057577811 0.6843248705785732 0.0
5.208929198448351 0.3519433027337513 0.0
3.708880196230617 1.249762029554333 0.0
1.713349558540635 1.234899745098077 0.0
4.586522821995393 0.9261740906803194 0.0
5.241145838821565 0.7007005766013242 0.0
1.434457446926135 1.701926055218157 0.0
0.2821921707428039 0.3393165318407161 0.0
3.42846431357046 1.714274134409306 0.0
5.26283485467567 1.710141275531951 0.0
3.966530105129177 1.718376080180638 0.0
4.891301048299285 1.259923533724591 0.0
0.2787500712946937 0.6906723798523376 0.0
1.822166578929051 0.7301892210727335 0.0
8.593276160688786 1.287322908694633 0.0
2.386017956680413 0.7288816957021155 0.0
3.576911792171353 0.7225526638483954 0.0
8.013982043315597 1.271118304297217 0.0
6.82303669320588 1.277631295759485 0.0
2.891837633696712 1.215141906356511 0.0
8.708162366297856 0.7848580936429009 0.0
7.496736072543097 0.7897651325976158 0.0
6.296736072542775 0.7897651325982009 0.0
5.523181420933933 0.7588744249744506 0.0
4.725538117155759 0.6529070682798582 0.0
2.736307197014292 0.273961667653487 0.0
7.663692802980817 1.726038332346062 0.0
6.446842959287713 1.783714797320288 0.0
1.126188383272983 1.743715177525389 0.0
2.64757240694847 1.787239829472812 0.0
6.546646507559373 0.2589894635657943 0.0
7.746646507561152 0.2589894635657218 0.0
4.079302268890254 1.221431431691139 0.0
4.433746883463333 0.2983726043497702 0.0
1.032697650548726 1.318076986199429 0.0
1.309492735411376 1.208980965369829 0.0
3.896105387998365 0.2579746081881307 0.0
9.378751775005455 1.725996478164223 0.0
9.3965279828929 0.2649862374471925 0.0
1.515757555362918 0.2603060454608533 0.0
4.959097093232828 1.726144293543605 0.0
4.912501341257775 0.2529154558175828 0.0
4.342421824442713 1.285376618065631 0.0
7.023506283123107 0.293611963231815 0.0
8.215829626877609 0.2682061590942965 0.0
5.28145265730745 1.291130016052329 0.0
8.693992162747364 1.744100892812201 0.0
0.6256567126095668 1.775064851453201 0.0
0.2724967459749605 1.756941612685287 0.0
8.90781713264278 0.2741674349222226 0.0
7.184202236567151 1.709454269177068 0.0
3.212962614055919 0.2641656831057426 0.0
0.6761590188374282 0.6746441670621973 0.0
1.020489328989316 0.2487299689497893 0.0
1.485017749467193 1.402133856149482 0.0
6.734223224917944 1.790518105434539 0.0
2.657549589911705 0.7636227781082678 0.0
6.542590471647475 1.237213715285722 0.0
7.742745187066703 1.235538225115726 0.0
0.5794341726414672 0.2480285055479751 0.0
1.842901067642841 1.760146518280044 0.0
3.84389577648662 0.7524680119172447 0.0
3.061589173628368 1.407936939342627 0.0
6.144447294584154 0.5911674363009913 0.0
7.344447294585433 0.5911674362995804 0.0
8.544447294586682 0.5911674362982269 0.0
5.491507940982565 0.1734458797927824 0.0
[...]
<PointData Vectors="fields">
<DataArray type="Float64" Name="U" NumberOfComponents="3" format="ascii">
0.0 0.0 0.0
0.025034672356392115 0.0 0.0
0.002112188818451509 -0.004661430174435408 0.0
0.01244384301050137 -0.039910227955467704 0.0
0.022767717854562736 -0.004367591767713335 0.0
0.0002889627775011913 -0.00479926893204349 0.0
0.0008171407404624139 -0.0078539407535948 0.0
0.0012903647133351666 -0.010562879206192017 0.0
0.0016830824049058604 -0.012936048494839912 0.0
0.0020275417093749658 -0.015202850937681894 0.0
0.0023604377641713503 -0.01738025467603753 0.0
0.0026950723656488304 -0.019474672282568196 0.0
0.0030632291364015357 -0.021498746215064903 0.0
0.0034426687966915355 -0.023453354991210804 0.0
0.0038519200857736035 -0.02531652000008452 0.0
0.0042813435432262955 -0.027087474391446962 0.0
0.0047487812814333875 -0.02876891190545649 0.0
0.0052237729045677 -0.0303458473328966 0.0
0.005747107309913062 -0.0318192070119051 0.0
0.006267494189196298 -0.03318252026170119 0.0
0.0068301983142332896 -0.03443083642257341 0.0
0.007394981723572981 -0.03555298666893015 0.0
0.007989002211484244 -0.03655805703287196 0.0
0.008589036284362157 -0.03741193246326063 0.0
0.009195559451265167 -0.03817920605239504 0.0
0.00982649789556064 -0.038796703170954044 0.0
0.010451214412612722 -0.039276456932350295 0.0
0.011095232842954389 -0.03962700708687058 0.0
0.011728965497755747 -0.0398328374022158 0.0
0.012389672785605016 -0.03990947910594153 0.0
0.013032089454293221 -0.03984919696219131 0.0
0.01367401586716653 -0.039647418224296585 0.0
0.01431303086003265 -0.03931191078888067 0.0
0.014943688491591882 -0.03883768774397848 0.0
0.015556682690606435 -0.03823504007004094 0.0
0.016182370627953975 -0.03751034867107783 0.0
0.016774887126282098 -0.03661902424160285 0.0
0.017368487604234574 -0.03564565666444853 0.0
0.017933749946923597 -0.034544501100252874 0.0
0.018497775237925597 -0.03330430762101795 0.0
0.01902919325520438 -0.031951709094931426 0.0
0.019540810037448526 -0.03049383100237764 0.0
0.0200163483672937 -0.02890331718309534 0.0
0.02048145102143861 -0.02725082002960412 0.0
0.020910188847163325 -0.025497034754367324 0.0
0.021323190619597397 -0.023644897027404355 0.0
0.021703170753213704 -0.021701666101405566 0.0
0.022067868223560085 -0.01968941899275839 0.0
0.02240091628675488 -0.01759972419983443 0.0
0.022741809516002166 -0.015429178662036424 0.0
0.023075699294369516 -0.013181884511098712 0.0
0.023447391822408015 -0.010806651205524653 0.0
0.02385787670049888 -0.00822828250272481 0.0
0.024499410934560942 -0.0051613655563322175 0.0
0.02113272630135589 -0.0018540609023078212 0.0
0.01863159986160698 -0.0028580864753583062 0.0
0.01635394106615872 -0.003496075634927323 0.0
0.014267441500111364 -0.003978929012416097 0.0
0.012241398216925048 -0.0042809603938530495 0.0
0.010253329960611294 -0.004477217243912052 0.0
0.008267107282368187 -0.004596525239758614 0.0
0.006250674264179837 -0.004650082358236038 0.0
0.004198291552580366 -0.004661057065607797 0.0
0.0021107514869929886 -0.006755185974917029 0.0
0.0021165475671990172 -0.00887613827478443 0.0
0.0021562928161541995 -0.01102944342963731 0.0
0.002247526916437431 -0.013205107025124691 0.0
0.0023980126261042 -0.015371650594616934 0.0
0.002602816094455577 -0.017500126974963948 0.0
0.0028627783872687625 -0.019601448417952506 0.0
0.0031672549716986547 -0.02162736035546852 0.0
0.0035174282819207398 -0.023577214773973648 0.0
0.00391656626382843 -0.025449725833123132 0.0
0.004334002460349177 -0.02722356706744322 0.0
0.004804190525786616 -0.028903540870050492 0.0
0.005278947749678582 -0.030478642320067025 0.0
0.005798878614791966 -0.03194429740673948 0.0
0.006333525586091451 -0.033300738071086536 0.0
0.006888721103708917 -0.03453848818457635 0.0
0.00744984347552648 -0.035625414407794875 0.0
0.008041062717514636 -0.03664391634672755 0.0
0.008645235033749539 -0.0375013697890624 0.0
0.009246032451729443 -0.03823468311028718 0.0
0.009873893411077821 -0.038844146387398665 0.0
0.01052168476338692 -0.039313840265303955 0.0
0.01114614966854528 -0.03964752152342319 0.0
0.011799718135572972 -0.039848538878564294 0.0
0.013103193276390654 -0.03982388095936228 0.0
0.013733047835634574 -0.0396159178206861 0.0
0.014356620173748922 -0.039273179146611374 0.0
0.0149942466605246 -0.03880327433617072 0.0
0.015625318557729903 -0.03818029597930898 0.0
0.016253366713726104 -0.03742857264558801 0.0
0.01683896216988872 -0.036554759284835994 0.0
0.01743019508161509 -0.035551128786195055 0.0
0.018001199435724695 -0.034430759784102934 0.0
0.018562531077096784 -0.03318544414145383 0.0
0.019086673225704922 -0.03179491992916238 0.0
0.019604753624598882 -0.030340497586554663 0.0
0.020083514294748646 -0.02875056310735175 0.0
0.02053367289299521 -0.027058633056884357 0.0
0.020968929687214623 -0.025269327133922406 0.0
0.021363287202748486 -0.023388452811023374 0.0
0.02170873230551012 -0.02142932285923961 0.0
0.02202664571095924 -0.019386251802789845 0.0
0.02228415144418572 -0.017284754973298597 0.0
0.022490509769497395 -0.015129948622143403 0.0
0.02263374972831738 -0.012955183478096844 0.0
0.022719164153422833 -0.01076856211001784 0.0
0.022760831328189596 -0.008605554741805424 0.0
0.022771047156583547 -0.006470129978899671 0.0
0.020670376696354055 -0.0043686149113163954 0.0
0.018606016320754763 -0.0043581692652515614 0.0
0.016581632723279206 -0.00430879837545682 0.0
0.01457851785592411 -0.004194656018335901 0.0
0.012583467583010498 -0.003984330918022246 0.0
0.010548436678088172 -0.0036849360636497385 0.0
0.008450026834837561 -0.003207026798426928 0.0
0.006181928484920685 -0.002547511430398221 0.0
0.0034826657717585974 -0.001438589692911365 0.0
0.012157422475979897 -0.0206333681832184 0.0
0.012156489647280527 -0.031315645651400686 0.0
0.012432759595117119 -0.03815035482031282 0.0
0.012446134665569323 -0.016415770057727982 0.0
0.012223967330418133 -0.02823139638144493 0.0
0.0123018658059924 -0.03643349691630084 0.0
0.012409637436233613 -0.04013736110216 0.0
0.014572674519036894 -0.01257050274329325 0.0
0.012706737420074716 -0.039997167270469945 0.0
0.00978193592172919 -0.02642860941927726 0.0
0.010751481425469125 -0.03524546566550773 0.0
0.009532836097352563 -0.022809189418254782 0.0
0.010429985834965795 -0.03284151148842432 0.0
0.01160800126945861 -0.0389142584243079 0.0
0.014210087388270046 -0.03512457227096724 0.0
0.015010052619442172 -0.02656899710634123 0.0
0.013415089575673732 -0.03878556993029527 0.0
0.014688291321131254 -0.03286834687228711 0.0
0.01563839079243921 -0.02279208459073539 0.0
0.011757258108607494 -0.03966009778251362 0.0
0.009076546245220661 -0.015089030963212657 0.0
0.016104453718838244 -0.011077571513689492 0.0
0.008460090514064118 -0.011210535218077721 0.0
0.01236050737456579 -0.040203604858619624 0.0
0.01689021232902348 -0.01791352234240083 0.0
0.013688425172165996 -0.038904787757689165 0.0
0.012302819377937336 -0.04018419958601084 0.0
0.00799281692168617 -0.02194162600763373 0.0
0.008970395230188678 -0.030406302904696904 0.0
0.01053399629982215 -0.03757733477700502 0.0
0.0073594962716354234 -0.01798792085308547 0.0
0.00855718119599982 -0.0272419567583555 0.0
0.009980825100505797 -0.035730496414074046 0.0
0.015523716419913233 -0.03202080897839254 0.0
0.014455595808966578 -0.03688804002493254 0.0
0.015957348131084004 -0.02910096194150344 0.0
0.017121584435203507 -0.017885484780377478 0.0
0.007515599860689459 -0.009432098085828644 0.0
0.013139589244610773 -0.03984734453107374 0.0
0.0173147523615593 -0.022398364969025177 0.0
0.018095467067281466 -0.00911511856323757 0.0
0.011428527643059386 -0.03966807478684728 0.0
0.014781654340143838 -0.037094493748860896 0.0
0.011999010969307984 -0.00878687382521147 0.0
0.012255426913256238 -0.008852508278341307 0.0
0.012392451343341762 -0.040282055229795215 0.0
0.010021795400164983 -0.03768297102974307 0.0
0.008290933191417686 -0.030521337348082864 0.0
0.008851471629868456 -0.03326338399073376 0.0
0.016833304152511667 -0.02910578948300594 0.0
0.01731951185896477 -0.025838503318462505 0.0
0.015592624127935132 -0.034873477282474113 0.0
0.012381004588145682 -0.01670291195176264 0.0
0.018484540734246276 -0.013987368455091007 0.0
0.01239151392844156 -0.03933258953922187 0.0
0.012464867047684278 -0.03411864634100948 0.0
0.012460321543678736 -0.03828832108173359 0.0
0.012458742467926727 -0.024617349834114344 0.0
0.01250781887876981 -0.03160946349215829 0.0
0.012312146648441215 -0.020856766232156824 0.0
0.012479032348103996 -0.02825945237070301 0.0
0.012394391726758183 -0.02477540279893848 0.0
0.012410572098862557 -0.034253101253087094 0.0
0.012408312869156588 -0.03641514506494861 0.0
0.01243010841784873 -0.039454077254938026 0.0
0.012983231553691708 -0.04000326655187119 0.0
0.010589321146879133 -0.03872681905009784 0.0
0.006275984132664119 -0.018400889521584647 0.0
0.005872948395401847 -0.0141135244387512 0.0
0.019081416934380393 -0.014203262230460055 0.0
0.011660695919829952 -0.03990519581650723 0.0
0.019320225354341886 -0.007881068372188162 0.0
0.005563785479042633 -0.008070649677480458 0.0
0.006723865017910192 -0.024869216366219356 0.0
0.009296148463589062 -0.03608517617150523 0.0
0.00647739783581317 -0.02133829599398994 0.0
0.008612029975998244 -0.033663109719667905 0.0
0.016163674022967037 -0.03417283568405955 0.0
0.01459771267874473 -0.03820284343036036 0.0
0.016875323394853266 -0.03172997446761611 0.0
0.018519397404001728 -0.021200514038806312 0.0
0.01294330633910926 -0.012827575821832566 0.0
0.010577385017001102 -0.03880840300457931 0.0
0.0055018129379783886 -0.013083958788413147 0.0
0.007027580614707602 -0.028038116159387807 0.0
0.006495702510464652 -0.024597167567608675 0.0
0.011574384453909698 -0.03865843358758474 0.0
0.009728874116670127 -0.018821932984844476 0.0
0.00946629342558732 -0.01521612402853352 0.0
0.018183993591566888 -0.02580885836193672 0.0
0.011572570345552707 -0.012619714582726555 0.0
0.0105648784945804 -0.03259401807568138 0.0
0.011228497286802554 -0.03728450346088711 0.0
0.010295515158611063 -0.0297286977731503 0.0
0.014370566455005226 -0.02989026760895548 0.0
0.014592727746221154 -0.026691116694651126 0.0
0.013797694587446924 -0.03547236528040535 0.0
0.013720908056200819 -0.03945356973662778 0.0
0.014949845802698885 -0.0076869781713370285 0.0
0.01394478263572272 -0.039169571081188945 0.0
0.015194402136580791 -0.007336590447949724 0.0
0.009203661761895585 -0.007792795455124514 0.0
0.012014419568351349 -0.039771828738826065 0.0
0.015401662790181656 -0.015015747022368322 0.0
0.012823072263794645 -0.040065452789575955 0.0
0.013408148694889797 -0.03738217966093042 0.0
0.014508404638774078 -0.022763764797351177 0.0
0.012316286690953027 -0.03997236483134094 0.0
0.012627122579833602 -0.04016596023111971 0.0
0.019012134760542754 -0.019835351282204976 0.0
0.005566615022550141 -0.006349741090898948 0.0
0.01588785601135206 -0.035870421596793635 0.0
0.011841250170490931 -0.039992520322989916 0.0
0.014759827291799851 -0.038251516077128817 0.0
0.012506047181410072 -0.040227977926148795 0.0
0.009510844489125956 -0.006698964457104016 0.0
0.010094049906306572 -0.02384943270082916 0.0
0.009709580847918016 -0.019837818280351718 0.0
0.010392221992041954 -0.02890002374041188 0.0
0.011201808554287585 -0.036768338439976685 0.0
0.01016753312804116 -0.02554793421658957 0.0
0.010908321830167364 -0.034696824773277436 0.0
0.013755444948853727 -0.032746235484678754 0.0
0.014373905112577932 -0.01868764618796667 0.0
0.013913693337615739 -0.030004154345716967 0.0
0.013243510268854173 -0.03743188265433525 0.0
0.012797059920307613 -0.03980666955215287 0.0
0.012100472303353711 -0.04010175466222785 0.0
0.007522003862087819 -0.03150490260886133 0.0
0.006866728522846797 -0.028508271965455426 0.0
0.00891947481889201 -0.036545835789403354 0.0
0.019716195646251253 -0.016552234125364287 0.0
0.01790859394751474 -0.030806857385324692 0.0
0.015926777578467194 -0.03608032065082588 0.0
0.018223630940084973 -0.027827386174704545 0.0
0.0130488884336077 -0.03878008775184622 0.0
0.011131177498364222 -0.039535315118549005 0.0
0.015601042523426173 -0.01558963885722936 0.0
0.01444657195257104 -0.018609475268905874 0.0
0.009821107217549488 -0.03797223345932499 0.0
0.005033730506826455 -0.011275341072395403 0.0
0.020123086111000797 -0.010909941494838347 0.0
0.005492441860177222 -0.020757958619798452 0.0
0.012527531314772794 -0.04008957374743885 0.0
0.012183975350067553 -0.04006138808819646 0.0
0.013005079104984612 -0.03948791208932729 0.0
0.016686061127964516 -0.03330991718622163 0.0
0.018853036932348684 -0.023597009430546743 0.0
0.012160618793855594 -0.040123152152681904 0.0
0.005314301290353531 -0.018691686136378755 0.0
0.02033105981301175 -0.011065037604456209 0.0
0.020216186716387186 -0.007233497409948064 0.0
0.01962658674286352 -0.01652463283889112 0.0
0.007820090754239846 -0.03220712424117632 0.0
0.00838739159125488 -0.034657855072723245 0.0
0.009311550612578764 -0.011539618641881765 0.0
0.00480797944473257 -0.015502475881644646 0.0
0.016147040313594322 -0.02041823185478661 0.0
0.008232028988416155 -0.03502977050700139 0.0
0.010792897178960374 -0.031055131788665154 0.0
0.011305665943114752 -0.036269813609547515 0.0
0.010593128075158616 -0.02796814598925495 0.0
0.004452414797229401 -0.010335273031467865 0.0
0.01905699899594105 -0.023893909629699107 0.0
0.011518900566038524 -0.03793600788749296 0.0
0.014782801818335122 -0.03383861509846338 0.0
0.013843160191944707 -0.03801158025835354 0.0
0.015187328818022615 -0.031144571056479154 0.0
0.016155896227220894 -0.02039616410021064 0.0
0.013682632525690054 -0.039631880899385796 0.0
0.010416158629066823 -0.0212941889289928 0.0
0.017189674362271028 -0.032872776956693855 0.0
0.017899280994644544 -0.030213715939834716 0.0
0.015381672599293924 -0.03743144399945655 0.0
0.017165860946748577 -0.011659197982386117 0.0
0.010404370782199874 -0.011185782154288433 0.0
0.010824243817680382 -0.03927579880563249 0.0
0.01384157193487668 -0.038018743721668184 0.0
0.006593127381852842 -0.029743975523518932 0.0
0.00592336859045225 -0.026516169044544225 0.0
0.013470902365663593 -0.039287607494262605 0.0
0.010127724834555353 -0.017901449888923143 0.0
0.016759025037106502 -0.02505502462390006 0.0
0.014180830506711957 -0.010127137847839593 0.0
0.0144387513215524 -0.03891297630216572 0.0
0.01751182777725221 -0.006000846111358102 0.0
0.009180191270224462 -0.036976545037513145 0.0
0.005454955555639239 -0.023042941705444943 0.0
0.013159470740263806 -0.03980402341518093 0.0
0.009770839306242108 -0.038121935900858876 0.0
0.014195714621942556 -0.03649923216893208 0.0
0.018672069754871446 -0.02786876158800471 0.0
0.012394361717372099 -0.040270482711069484 0.0
0.012837285312201546 -0.006679498579513591 0.0
0.011575496489073554 -0.03946583794316757 0.0
0.012159855879739367 -0.038916592135418565 0.0
0.011562206411667404 -0.022841185944775258 0.0
0.01181375421963021 -0.03285926140712197 0.0
0.011662734706949366 -0.026442142007567893 0.0
0.01190438809026004 -0.035251079358823344 0.0
0.004692240379365539 -0.016022533865665555 0.0
0.013152131556329357 -0.006436756202885225 0.0
0.015542122087739819 -0.03730400012578933 0.0
0.012421759224256637 -0.040266396488102055 0.0
0.01204339709214157 -0.040103570931796166 0.0
0.009840740908558321 -0.008855235466514047 0.0
0.020142374128946955 -0.01871401792689907 0.0
0.01570738050302668 -0.024940709012869766 0.0
0.015720456816806682 -0.028162471949084975 0.0
0.014611765304969038 -0.034322140197654304 0.0
0.009789377188242713 -0.03137834691881079 0.0
0.01016688612942558 -0.03400982313974056 0.0
0.011120160920083716 -0.03821702048767661 0.0
0.005713659452106722 -0.02641883214683475 0.0
0.005156398261799949 -0.02281915514336439 0.0
0.01037640264066239 -0.0367838017911271 0.0
0.008928734386250229 -0.028963787346319204 0.0
0.00934984180977503 -0.031920768501771765 0.0
0.014322607272799917 -0.024700449597687968 0.0
0.013887979252109517 -0.010549022764733976 0.0
0.0073761944511249 -0.006661777389915118 0.0
0.01712385142405174 -0.0057403574674424855 0.0
0.013020766575084212 -0.035225807370871845 0.0
0.013361695991911358 -0.026587103775292005 0.0
0.012759456475220952 -0.03884805219204674 0.0
0.01316599004995597 -0.03281431843353919 0.0
0.013447977942360705 -0.022677273112864882 0.0
0.019237689898514623 -0.021946629335815596 0.0
0.007511973192793996 -0.005129954612094398 0.0
0.015726677862741227 -0.0306459460391547 0.0
0.014695110163531656 -0.03597098227413313 0.0
0.016131984001862044 -0.027544185921340093 0.0
0.011700426870487883 -0.02984292746674449 0.0
0.01196135922157939 -0.03544806184109078 0.0
0.011612840389381792 -0.026579937490274912 0.0
0.013547101466795454 -0.0397029891470799 0.0
0.012019110183920562 -0.03739008411505193 0.0
0.008803491789132893 -0.02785238597793831 0.0
0.008447037639203682 -0.02437913728298736 0.0
0.014647295053628174 -0.03868530820080752 0.0
0.012753866724440996 -0.04010191772759515 0.0
0.010461576193874644 -0.016872538204639197 0.0
0.011625559424240295 -0.018612397224308734 0.0
0.011399334532748663 -0.01442787783556561 0.0
0.010990526244460383 -0.038557094510601575 0.0
0.011675376173530183 -0.022717340493152584 0.0
0.006605132332223589 -0.029815333262247563 0.0
0.007361014997422038 -0.03263582756225122 0.0
0.012473995091541651 -0.040138531252627355 0.0
0.018746566342893803 -0.026211670834630448 0.0
0.016457927875012206 -0.035069794317559966 0.0
0.009643736293850357 -0.035059927919650104 0.0
0.009148015047971823 -0.032597808939215565 0.0
0.008014348763858321 -0.019223467283396394 0.0
0.020867493042142443 -0.005260952742673993 0.0
0.004310597607417882 -0.006864833757407251 0.0
0.013148313397396787 -0.01426442448632336 0.0
0.012929434624150023 -0.03943619876876766 0.0
0.012174439357852132 -0.03883436436252024 0.0
0.01191162342415517 -0.039273185547078995 0.0
0.010962732323152575 -0.006629788283390633 0.0
0.011199784002437483 -0.03966715054144919 0.0
0.02044264376984283 -0.014292166501727079 0.0
0.0117919767280187 -0.018634756017977504 0.0
0.016363447661568917 -0.009777980581292199 0.0
0.011341547829064094 -0.039109282651007764 0.0
0.01200729307917131 -0.032794237540999464 0.0
0.012135515797151192 -0.03748797412906867 0.0
0.011914011628857555 -0.03007838981573189 0.0
0.008109926748450045 -0.017165611061666877 0.0
0.008266114090497332 -0.023870152824368628 0.0
0.007958624043828771 -0.020007974580135132 0.0
0.010326008908937433 -0.036736370309614214 0.0
0.009797185287156385 -0.03463082643288552 0.0
0.012609370300605636 -0.03977228640493868 0.0
0.009993026189284498 -0.03859856570545634 0.0
0.01717351159388343 -0.01604663762910429 0.0
0.017328105440471326 -0.022793127981194983 0.0
0.015844685617324578 -0.03283030776699385 0.0
0.012034313688651217 -0.0394481085932301 0.0
0.013920183033935253 -0.0388245721312525 0.0
0.004195176054493759 -0.018774922916899434 0.0
0.007589755647238541 -0.015649491395016663 0.0
0.007966443012355618 -0.013467318698317915 0.0
0.014401312576808703 -0.020548851923577145 0.0
0.013682227505161435 -0.03391505236619952 0.0
0.013935263803446396 -0.031331513080418594 0.0
0.01318418277091164 -0.038122685370491315 0.0
0.015296995772976206 -0.03534590587565044 0.0
0.011306454199304695 -0.03405149227162211 0.0
0.011787188053916701 -0.03823885585797145 0.0
0.011125410243364858 -0.03146039021974887 0.0
0.02033578727912104 -0.009089164031555661 0.0
0.012348513533801706 -0.03988199600200965 0.0
0.014425467810658258 -0.03143095971944564 0.0
0.01459068117916049 -0.028681440806738432 0.0
0.01369289467543664 -0.036677148233819956 0.0
0.01333718328131139 -0.03631689478848027 0.0
0.009140347276449343 -0.03726140826389211 0.0
0.012647214466084793 -0.040160893844470476 0.0
0.013579900349661677 -0.034109117666899655 0.0
0.014131154178722983 -0.024582106584522537 0.0
0.014076774094426824 -0.016606495900712365 0.0
0.016546902610961922 -0.03489347502345455 0.0
0.007721556124157536 -0.00917042449228311 0.0
0.016789653116147576 -0.008701348763919271 0.0
0.018309289355798085 -0.02955133312365594 0.0
0.006923221776854949 -0.015141043274304204 0.0
0.011494595455106903 -0.03970225208719202 0.0
0.016992364046549444 -0.013191416969038404 0.0