<VTKFile type="UnstructuredGrid"  version="0.1">
<UnstructuredGrid>
<Piece NumberOfPoints="713" NumberOfCells="1304">
<Points>
<DataArray type="Float64" NumberOfComponents="3" format="ascii">
0.0 0.0 0.0
10.0 0.0 0.0
10.0 2.0 0.0
5.0 2.0 0.0
0.0 2.0 0.0
0.199999999999856 0.0 0.0
0.3999999999996677 0.0 0.0
0.5999999999994683 0.0 0.0
0.7999999999993286 0.0 0.0
0.9999999999991888 0.0 0.0
1.199999999999033 0.0 0.0
1.399999999998576 0.0 0.0
1.599999999997992 0.0 0.0
1.799999999997408 0.0 0.0
1.999999999996825 0.0 0.0
2.199999999996241 0.0 0.0
2.399999999995657 0.0 0.0
2.599999999995073 0.0 0.0
2.79999999999449 0.0 0.0
2.999999999993906 0.0 0.0
3.199999999993322 0.0 0.0
3.399999999992738 0.0 0.0
3.599999999992154 0.0 0.0
3.799999999991571 0.0 0.0
3.999999999991022 0.0 0.0
4.199999999991187 0.0 0.0
4.399999999991491 0.0 0.0
4.599999999991795 0.0 0.0
4.799999999992099 0.0 0.0
4.999999999992403 0.0 0.0
5.199999999992706 0.0 0.0
5.39999999999301 0.0 0.0
5.599999999993313 0.0 0.0
5.799999999993618 0.0 0.0
5.999999999993922 0.0 0.0
6.199999999994227 0.0 0.0
6.39999999999453 0.0 0.0
6.599999999994833 0.0 0.0
6.799999999995138 0.0 0.0
6.999999999995442 0.0 0.0
7.199999999995747 0.0 0.0
7.39999999999605 0.0 0.0
7.599999999996353 0.0 0.0
7.799999999996658 0.0 0.0
7.999999999996962 0.0 0.0
8.199999999997265 0.0 0.0
8.399999999997569 0.0 0.0
8.599999999997873 0.0 0.0
8.799999999998176 0.0 0.0
8.99999999999848 0.0 0.0
9.199999999998786 0.0 0.0
9.399999999999089 0.0 0.0
9.599999999999392 0.0 0.0
9.799999999999697 0.0 0.0
10.0 0.1999999999996293 0.0
10.0 0.3999999999991157 0.0
10.0 0.5999999999985328 0.0
10.0 0.7999999999979498 0.0
10.0 0.9999999999973885 0.0
10.0 1.199999999997894 0.0
10.0 1.39999999999842 0.0
10.0 1.599999999998947 0.0
10.0 1.799999999999474 0.0
9.799999999999999 2.0 0.0
9.6 2.0 0.0
9.399999999999999 2.0 0.0
9.2 2.0 0.0
8.999999999999998 2.0 0.0
8.799999999999999 2.0 0.0
8.599999999999998 2.0 0.0
8.399999999999999 2.0 0.0
8.2 2.0 0.0
7.999999999999998 2.0 0.0
7.799999999999999 2.0 0.0
7.599999999999999 2.0 0.0
7.399999999999999 2.0 0.0
7.199999999999999 2.0 0.0
7.0 2.0 0.0
6.799999999999999 2.0 0.0
6.6 2.0 0.0
6.399999999999999 2.0 0.0
6.199999999999999 2.0 0.0
5.999999999999999 2.0 0.0
5.8 2.0 0.0
5.6 2.0 0.0
5.399999999999999 2.0 0.0
5.199999999999999 2.0 0.0
4.8 2.0 0.0
4.6 2.0 0.0
4.399999999999999 2.0 0.0
4.199999999999998 2.0 0.0
3.999999999999999 2.0 0.0
3.799999999999999 2.0 0.0
3.599999999999999 2.0 0.0
3.399999999999999 2.0 0.0
3.199999999999998 2.0 0.0
2.999999999999999 2.0 0.0
2.799999999999999 2.0 0.0
2.599999999999999 2.0 0.0
2.399999999999999 2.0 0.0
2.199999999999999 2.0 0.0
2.0 2.0 0.0
1.799999999999999 2.0 0.0
1.599999999999999 2.0 0.0
1.399999999999999 2.0 0.0
1.199999999999999 2.0 0.0
0.9999999999999991 2.0 0.0
0.7999999999999998 2.0 0.0
0.5999999999999996 2.0 0.0
0.3999999999999995 2.0 0.0
0.1999999999999993 2.0 0.0
0.0 1.799999999999167 0.0
0.0 1.6 0.0
0.0 1.400000000001387 0.0
0.0 1.200000000002774 0.0
0.0 1.000000000004117 0.0
0.0 0.8000000000033287 0.0
0.0 0.6000000000024965 0.0
0.0 0.4000000000016644 0.0
0.0 0.200000000000832 0.0
1.499207686858938 0.9671416246672391 0.0
2.690335006295381 0.9619521672166851 0.0
3.892537609238439 1.007271393615351 0.0
8.916602958236062 0.9848120741100651 0.0
7.714518201951718 1.024234589865042 0.0
6.514518201951581 1.024234589865268 0.0
5.299999999999998 1.000000000000349 0.0
0.7620577975594133 1.201991596673393 0.0
4.61755859746166 1.240410629378135 0.0
2.099999999996533 0.6749999999988996 0.0
3.289480163184942 0.6802242156869155 0.0
8.299999999999976 1.325000000000064 0.0
7.110519836808121 1.319775784312006 0.0
5.893184537067197 1.292851873188582 0.0
3.268568008578649 1.341967835735878 0.0
2.118368267083699 1.321829331075689 0.0
5.930896443153832 0.6493414313150682 0.0
7.106926174231782 0.6329785805444448 0.0
8.306926174233002 0.6329785805444098 0.0
4.427960725065653 0.6389803625370323 0.0
0.9828791719046732 0.6520555711814596 0.0
9.383333333333349 0.6166666666667164 0.0
9.383333333333326 1.383333333333367 0.0
4.974443803660211 0.5526668589022862 0.0
1.248084267804327 1.464555585366204 0.0
4.139486343919472 1.468449088519687 0.0
5.077806736162063 1.478342020848787 0.0
1.629462398503482 0.5098631373669138 0.0
2.579462070540726 0.5133714280880515 0.0
3.770778974032556 0.5099482598296803 0.0
8.764748922637567 1.526880805960684 0.0
7.820537929455645 1.486628571911716 0.0
6.632254923791462 1.492045881343967 0.0
2.796478414430566 1.477149214423874 0.0
6.403521585563812 0.5228507855762514 0.0
7.603521585564883 0.5228507855756581 0.0
8.783559188644787 0.5066440811355862 0.0
0.5060338924245764 0.5082251307884346 0.0
5.451633334958382 0.4799315318847731 0.0
1.683269995544083 1.547372422998862 0.0
0.448590368789599 1.551409631210402 0.0
5.545526974704655 1.582008455135239 0.0
3.666056976948354 1.56999765613834 0.0
0.4385739326402744 0.9352922270094057 0.0
9.58170539854767 0.9922137522194456 0.0
4.93200119575972 0.9247090920592975 0.0
6.20679636316332 1.642443126922768 0.0
7.418963044745086 1.587405313446662 0.0
2.98103695524982 0.412594686552066 0.0
2.420975602092416 1.592770352831584 0.0
7.97902439790374 0.4072296471687943 0.0
6.779024397902082 0.4072296471687297 0.0
1.130444757308209 0.9859238872709168 0.0
0.8901814758011342 1.60566856081121 0.0
4.263670373274499 0.9915754392410991 0.0
3.096698167273431 1.009056907826855 0.0
6.088506433998166 0.9857489435828969 0.0
1.902225037409936 1.003483800311746 0.0
7.288506433998439 0.9857489435828686 0.0
8.498964973312972 1.005823551167602 0.0
2.307571737417198 1.008136792450924 0.0
8.100397971125554 1.000138280273345 0.0
6.900397971125225 1.000138280273792 0.0
3.499307350770321 0.9996496628144824 0.0
5.703656022566558 0.9885479657552226 0.0
4.719420624357892 1.622286409566126 0.0
4.099803549896894 0.3600308081356619 0.0
1.286100671532495 0.3637431910670685 0.0
9.120549139677793 1.655065205594329 0.0
9.11726214008418 0.3400668903113251 0.0
4.642568097328033 0.3514924793220939 0.0
9.630437629189052 0.3309104953729904 0.0
9.674493769554315 1.668196579944218 0.0
1.936458797611609 0.3337070483410596 0.0
3.461817573918652 0.3447876019040473 0.0
8.440152788772068 1.649667667046397 0.0
6.973083089482548 1.643748677366674 0.0
3.126874515006838 1.659115470008545 0.0
6.070607878384977 0.3410183041038941 0.0
7.255014454789089 0.32792256737713 0.0
8.462493615948901 0.3368393217476116 0.0
9.236261261261264 0.9276047786917867 0.0
5.885444386845415 1.667751020273455 0.0
0.8062340689595878 0.3261579034781319 0.0
2.29463843780282 0.308358158429197 0.0
8.10536156219338 1.691641841570632 0.0
4.041916759198581 0.7211683801597477 0.0
1.324377365289917 0.710525897087282 0.0
9.023167917315867 1.292262965009952 0.0
2.044244009166302 1.693807225416931 0.0
0.7675765545556328 0.8969765944392112 0.0
2.86965991063896 0.7069213925303978 0.0
6.330340089355722 1.293078607468788 0.0
7.530340089355831 1.29307860746885 0.0
2.509347777214458 1.27231292939881 0.0
7.890652222779963 0.7276870706009825 0.0
6.690652222780154 0.7276870706013264 0.0
4.380959112578968 1.65866292149053 0.0
0.3278422400819535 1.233362752678148 0.0
5.754468991464942 0.3469215055361071 0.0
9.69195804401614 0.7000195364707393 0.0
9.691250997975434 1.303243780084337 0.0
5.54324561063747 1.237401556904767 0.0
9.044596057577811 0.6843248705785732 0.0
5.208929198448351 0.3519433027337513 0.0
3.708880196230617 1.249762029554333 0.0
1.713349558540635 1.234899745098077 0.0
4.586522821995393 0.9261740906803194 0.0
5.241145838821565 0.7007005766013242 0.0
1.434457446926135 1.701926055218157 0.0
0.2821921707428039 0.3393165318407161 0.0
3.42846431357046 1.714274134409306 0.0
5.26283485467567 1.710141275531951 0.0
3.966530105129177 1.718376080180638 0.0
4.891301048299285 1.259923533724591 0.0
0.2787500712946937 0.6906723798523376 0.0
1.822166578929051 0.7301892210727335 0.0
8.593276160688786 1.287322908694633 0.0
2.386017956680413 0.7288816957021155 0.0
3.576911792171353 0.7225526638483954 0.0
8.013982043315597 1.271118304297217 0.0
6.82303669320588 1.277631295759485 0.0
2.891837633696712 1.215141906356511 0.0
8.708162366297856 0.7848580936429009 0.0
7.496736072543097 0.7897651325976158 0.0
6.296736072542775 0.7897651325982009 0.0
5.523181420933933 0.7588744249744506 0.0
4.725538117155759 0.6529070682798582 0.0
2.736307197014292 0.273961667653487 0.0
7.663692802980817 1.726038332346062 0.0
6.446842959287713 1.783714797320288 0.0
1.126188383272983 1.743715177525389 0.0
2.64757240694847 1.787239829472812 0.0
6.546646507559373 0.2589894635657943 0.0
7.746646507561152 0.2589894635657218 0.0
4.079302268890254 1.221431431691139 0.0
4.433746883463333 0.2983726043497702 0.0
1.032697650548726 1.318076986199429 0.0
1.309492735411376 1.208980965369829 0.0
3.896105387998365 0.2579746081881307 0.0
9.378751775005455 1.725996478164223 0.0
9.3965279828929 0.2649862374471925 0.0
1.515757555362918 0.2603060454608533 0.0
4.959097093232828 1.726144293543605 0.0
4.912501341257775 0.2529154558175828 0.0
4.342421824442713 1.285376618065631 0.0
7.023506283123107 0.293611963231815 0.0
8.215829626877609 0.2682061590942965 0.0
5.28145265730745 1.291130016052329 0.0
8.693992162747364 1.744100892812201 0.0
0.6256567126095668 1.775064851453201 0.0
0.2724967459749605 1.756941612685287 0.0
8.90781713264278 0.2741674349222226 0.0
7.184202236567151 1.709454269177068 0.0
3.212962614055919 0.2641656831057426 0.0
0.6761590188374282 0.6746441670621973 0.0
1.020489328989316 0.2487299689497893 0.0
1.485017749467193 1.402133856149482 0.0
6.734223224917944 1.790518105434539 0.0
2.657549589911705 0.7636227781082678 0.0
6.542590471647475 1.237213715285722 0.0
7.742745187066703 1.235538225115726 0.0
0.5794341726414672 0.2480285055479751 0.0
1.842901067642841 1.760146518280044 0.0
3.84389577648662 0.7524680119172447 0.0
3.061589173628368 1.407936939342627 0.0
6.144447294584154 0.5911674363009913 0.0
7.344447294585433 0.5911674362995804 0.0
8.544447294586682 0.5911674362982269 0.0
5.491507940982565 0.1734458797927824 0.0
[...]
<PointData Vectors="fields">
<DataArray type="Float64" Name="U" NumberOfComponents="3" format="ascii">
0.0 0.0 0.0
0.028379784179303345 0.0 0.0
0.0024705109701251924 -0.0052141718710610845 0.0
0.014136793723929848 -0.04514820753485584 0.0
0.02584315007005602 -0.005028842885366434 0.0
0.00030916394807307696 -0.00546904759383779 0.0
0.0009124085778514789 -0.008960470685886351 0.0
0.001456369879155154 -0.012044307043497094 0.0
0.0019138684318165536 -0.014745353248710895 0.0
0.0023164504465836857 -0.01732062516317011 0.0
0.0027061037963367757 -0.019791972805723094 0.0
0.003098374059935925 -0.02216777859920459 0.0
0.00352896310372255 -0.024461451581087167 0.0
0.003972985327321796 -0.02667396336310643 0.0
0.004450917984388232 -0.028780588606501033 0.0
0.004950891003735843 -0.03078092627770111 0.0
0.005493070521593386 -0.032677074345034314 0.0
0.006041666485052618 -0.034453144987358394 0.0
0.006642197523202848 -0.03610983261177564 0.0
0.0072369677107229176 -0.03764085469635476 0.0
0.007876533810680065 -0.03904033552636244 0.0
0.008515509654360274 -0.04029684729206509 0.0
0.00918574816904456 -0.041420817685444526 0.0
0.009860405307392538 -0.04237512242588061 0.0
0.010541847568538836 -0.04323056083022904 0.0
0.011250681505804277 -0.043918329938186756 0.0
0.011952179680642817 -0.044451366866356645 0.0
0.012675049186024858 -0.04483940899921767 0.0
0.013386636711290409 -0.04506582552992041 0.0
0.014128188847758131 -0.04514628065651605 0.0
0.014849861232424467 -0.04507274805493969 0.0
0.015571877187805618 -0.04484101184592349 0.0
0.016291476601595405 -0.04445852558940516 0.0
0.01700294089780692 -0.04391980277692028 0.0
0.01769617725815128 -0.04323633321464012 0.0
0.018405222228057558 -0.042413938768391946 0.0
0.019077843607927178 -0.04140478356755388 0.0
0.019752890702340434 -0.040300535070591156 0.0
0.020397601392716885 -0.039051702193580215 0.0
0.021041198398990026 -0.03764534793447061 0.0
0.02164761432601919 -0.03611144399746096 0.0
0.022230977330888357 -0.03445750130852169 0.0
0.02277131545260738 -0.03265493094771029 0.0
0.023298718579862442 -0.030780805087848702 0.0
0.02378422730602851 -0.028792749487299676 0.0
0.024250576299938136 -0.026694136422784707 0.0
0.024678860364243233 -0.024493651808903047 0.0
0.025088821234183597 -0.022215222240291564 0.0
0.025463176669229898 -0.01985021280280825 0.0
0.02584567651083388 -0.0173948376079417 0.0
0.026220677839737878 -0.014852142085893213 0.0
0.026637898420028987 -0.01216668190989214 0.0
0.027100470650196988 -0.009253281348462308 0.0
0.027818357765213915 -0.005786321811778888 0.0
0.023991620800705517 -0.0020638357612784886 0.0
0.021160030315790224 -0.0031915596549207037 0.0
0.018586970083531454 -0.003907403896417308 0.0
0.016225271251097944 -0.004447899007044804 0.0
0.013933162294977727 -0.0047870391594999635 0.0
0.01168287646135972 -0.005007816414455506 0.0
0.009434630553782674 -0.005141487963414494 0.0
0.007152847462362716 -0.00520147264783557 0.0
0.004830532242328728 -0.005213901900142431 0.0
0.002468840605753424 -0.007582890653047895 0.0
0.0024755356155762276 -0.009982186447794719 0.0
0.0025201401019264973 -0.012418163248690679 0.0
0.0026225261187546203 -0.01487909197021934 0.0
0.0027915793277852145 -0.01733013643804034 0.0
0.0030211573594302495 -0.01973921073363217 0.0
0.003313569105406376 -0.022116818732663746 0.0
0.0036563135978668385 -0.024410533182828327 0.0
0.004050518450129142 -0.026619398477884144 0.0
0.004500453438723526 -0.028740592937784214 0.0
0.004971870785625262 -0.030751336370254824 0.0
0.005503183099518991 -0.032655905478852665 0.0
0.006041168100568914 -0.03444226848076609 0.0
0.006630600039749842 -0.03610437779457374 0.0
0.007237281141985496 -0.037642675209997346 0.0
0.007867741662940367 -0.039046009809036365 0.0
0.008503605513708252 -0.04027969434633583 0.0
0.00917365218747486 -0.04143332837172 0.0
0.009857977418059674 -0.04240553007888341 0.0
0.010537324817703862 -0.0432370664210789 0.0
0.011245725823829385 -0.04392844442637517 0.0
0.01197520444366689 -0.0444616599509047 0.0
0.012678163957312635 -0.04484225737950272 0.0
0.013412942991170228 -0.04507345493750415 0.0
0.014877059729010919 -0.0450570935706776 0.0
0.015584387452682633 -0.04482846181198933 0.0
0.01628507098736069 -0.04444939256568933 0.0
0.017001542446645097 -0.04392733843216062 0.0
0.017710642550696536 -0.043234072572853686 0.0
0.018416545070670295 -0.042395649498460114 0.0
0.01907602449419704 -0.041419684934905665 0.0
0.01974300634493207 -0.040297740723656446 0.0
0.020388248352058942 -0.03904300246230509 0.0
0.021024420706613 -0.03764642410543025 0.0
0.02161929446233061 -0.036085870504477445 0.0
0.022208898523702742 -0.03444960413444388 0.0
0.022756548130484833 -0.03265881087138006 0.0
0.023272454622272516 -0.0307504121959258 0.0
0.02377226916849546 -0.028729425255856023 0.0
0.02422602504159893 -0.02660147977301454 0.0
0.024624132322531057 -0.02438245043888755 0.0
0.024990509852602122 -0.02206667885896457 0.0
0.025287533470527482 -0.01968236900080651 0.0
0.025525108756727404 -0.017237049173503976 0.0
0.025689797964805368 -0.014768407945959117 0.0
0.02578782971411753 -0.012287256079202518 0.0
0.025835702486135956 -0.009833546018170951 0.0
0.02584696131106147 -0.007412201114792534 0.0
0.023465713353844266 -0.005030157492639981 0.0
0.02112637510860854 -0.005018337637052829 0.0
0.01883351453727017 -0.004961766784563854 0.0
0.016566821739317665 -0.004830272473211467 0.0
0.014309445757807812 -0.004586502478657139 0.0
0.01200727248504347 -0.004239395060361175 0.0
0.009630296739750195 -0.003685140656074948 0.0
0.007056140265312994 -0.0029208726139752328 0.0
0.0039862131438004695 -0.0016474270867499374 0.0
0.013812081872966717 -0.02345336293524607 0.0
0.013829582108888518 -0.03550139866369576 0.0
0.014149035007416662 -0.04314350077180418 0.0
0.014183904141611475 -0.018486854496662035 0.0
0.013925594823181639 -0.031848899027245595 0.0
0.014008098576600021 -0.041138416115067446 0.0
0.014126198780636461 -0.045333134373405984 0.0
0.016545800943595406 -0.014317775316836378 0.0
0.01445243557777874 -0.04519732710110492 0.0
0.011146103905823114 -0.030006070498358337 0.0
0.012266198671966627 -0.039906810044437156 0.0
0.010873395103768505 -0.02571681630167799 0.0
0.011886002350314695 -0.03707614543215446 0.0
0.013217613198662452 -0.04395037159391661 0.0
0.01613541157717429 -0.039773828486226584 0.0
0.017036744444974296 -0.030164399506904374 0.0
0.015267809233350317 -0.04380649696990002 0.0
0.01672049310350093 -0.03710788183071678 0.0
0.017804056623476137 -0.02569618810408325 0.0
0.013401361210723954 -0.044828300404457525 0.0
0.010316900362683405 -0.017171434303650635 0.0
0.018333257381956736 -0.012458097100234537 0.0
0.009661304385718375 -0.012614497866924255 0.0
0.014081539692633453 -0.0454277243895915 0.0
0.019168768589186654 -0.020378411322505834 0.0
0.015548265951198105 -0.04399641932006151 0.0
0.013992748155217028 -0.04540622372722849 0.0
0.009108911442457936 -0.024940943506500137 0.0
0.010252253906278168 -0.0344897609105508 0.0
0.012030458835769428 -0.042517259940054 0.0
0.008411193468634667 -0.020272432030901767 0.0
0.009762831994608829 -0.03073907176922252 0.0
0.011375625054109243 -0.04035591117309015 0.0
0.017611906426195208 -0.036302968401146204 0.0
0.01644882855212588 -0.041665372418989696 0.0
0.01816544296279022 -0.032843531959920146 0.0
0.019485584821308754 -0.020150407728733548 0.0
0.008542783317585803 -0.010745999748202544 0.0
0.014959126348391657 -0.04501971748244676 0.0
0.01964498769244722 -0.02545900056146496 0.0
0.02054351607567757 -0.01040712895599719 0.0
0.013007316277064076 -0.044820780327300365 0.0
0.016774060319208594 -0.041985538871959036 0.0
0.013633150075156602 -0.010023258537032995 0.0
0.013965121335940647 -0.009949920393572214 0.0
0.01410790547844598 -0.04550497336453919 0.0
0.011419750861581209 -0.0425761941279538 0.0
0.00945863750354805 -0.03445911428976951 0.0
0.010133507026225284 -0.037700573648030845 0.0
0.019090257302871186 -0.03303207045735969 0.0
0.019712194808739043 -0.029153066741217468 0.0
0.017742243343553097 -0.03939084355396556 0.0
0.014061818091969627 -0.01900070448237025 0.0
0.020980296946655753 -0.015931205696941328 0.0
0.01410423951349946 -0.04445837706196172 0.0
0.01418011545710971 -0.03864226083834449 0.0
0.014186033122857265 -0.04323675766031377 0.0
0.014157998913899364 -0.02795849824662905 0.0
0.014246191933134087 -0.035675326816043997 0.0
0.014029633237012819 -0.023504432271407888 0.0
0.014186593025842737 -0.03206578448751844 0.0
0.014120995089494305 -0.027936554993929132 0.0
0.014133609145914017 -0.03867011831745858 0.0
0.014119899558848565 -0.041208614607331294 0.0
0.014150431268002202 -0.04455625259089241 0.0
0.014753119076541735 -0.045221891924238033 0.0
0.012097432775441343 -0.04380705138103165 0.0
0.0071509700089148346 -0.0209343834701398 0.0
0.0067279676010260055 -0.01589792848340931 0.0
0.021704131570150272 -0.015991057535381624 0.0
0.013300784841262589 -0.04511468126499415 0.0
0.021974903823275688 -0.008848675430089154 0.0
0.006377358649417304 -0.009069477612541364 0.0
0.007690609499070677 -0.028257198081785388 0.0
0.010643371588617945 -0.04086156794424825 0.0
0.0074081334076932775 -0.02406434304003639 0.0
0.009822509700382441 -0.038022588167430746 0.0
0.0183276654471826 -0.0387252824884651 0.0
0.01660797225430169 -0.04316523924050416 0.0
0.01920462153961821 -0.035833203469283835 0.0
0.021070980782806822 -0.023905740698429802 0.0
0.014748985351462383 -0.014435098009498208 0.0
0.012046195497239967 -0.043852681459283 0.0
0.006255369001681503 -0.014899481742671012 0.0
0.008053681440679179 -0.031833985469732165 0.0
0.007425588885135528 -0.027754196834762775 0.0
0.01319342641796607 -0.043712896648364245 0.0
0.01106247922011069 -0.021403694010725886 0.0
0.01080297371715355 -0.017135979998309795 0.0
0.020622348602683784 -0.0293200747255033 0.0
0.013145641611458715 -0.014369595844196722 0.0
0.012049199475135032 -0.03693858644828902 0.0
0.012789957871403208 -0.042105929241428364 0.0
0.011734657679103254 -0.03354861650147335 0.0
0.016315981805028842 -0.033903501655982764 0.0
0.016616783846852917 -0.03010750174803197 0.0
0.015705793548076042 -0.04005458158328362 0.0
0.015580261413480416 -0.04461742875103315 0.0
0.016979252373973245 -0.00878449846645599 0.0
0.01586945038218595 -0.04426027685819324 0.0
0.017295946916227694 -0.008239198380846281 0.0
0.010501527377004438 -0.008754354756985036 0.0
0.01367596641583563 -0.04492028372693817 0.0
0.01753655996530903 -0.016904865782638057 0.0
0.014606293207705328 -0.045279691515788444 0.0
0.015237621263941634 -0.04229138858507286 0.0
0.016470612713078172 -0.025865217448339313 0.0
0.014021835369940512 -0.045167167857591464 0.0
0.014377644924970949 -0.045371441960780114 0.0
0.02157157514442953 -0.022562616612052236 0.0
0.006328003126446677 -0.007237819986505897 0.0
0.018014977500573414 -0.04062868367487365 0.0
0.013467896857163658 -0.04520276083126874 0.0
0.016745785405397548 -0.043285864673910504 0.0
0.014226829426707607 -0.045450254921500836 0.0
0.010815503367933276 -0.007647840685477087 0.0
0.01148883006502 -0.027093314823363464 0.0
0.011076366511906539 -0.022356841762202 0.0
0.011842332269151554 -0.03278958748246043 0.0
0.012773243595117062 -0.04160615447795856 0.0
0.011591917892369305 -0.02881436149157657 0.0
0.012428347594010321 -0.03917655790240198 0.0
0.015625168095169673 -0.037108083844746086 0.0
0.016369967036559126 -0.021053134566950245 0.0
0.015843886026471583 -0.03385884213762637 0.0
0.015074423151769966 -0.042270676477180275 0.0
0.014567903306502178 -0.04495983805079765 0.0
0.013786695922150944 -0.04531517166046625 0.0
0.008632707839382412 -0.03573599895090432 0.0
0.007843117059506622 -0.03218620290735051 0.0
0.010170535797725469 -0.04130019815234636 0.0
0.022374706336064747 -0.0188425153657928 0.0
0.020298114718003985 -0.03495729726205463 0.0
0.018117596481847815 -0.04076829906952868 0.0
0.020737938581255583 -0.03141443927879483 0.0
0.014836163856983017 -0.043847805183663026 0.0
0.012707726357744307 -0.04470998040500171 0.0
0.017709275157231898 -0.017741982528932908 0.0
0.016400579924404475 -0.021162741651609383 0.0
0.011237787483076862 -0.042974633547945916 0.0
0.005777972740912069 -0.012692350106833181 0.0
0.02288226742081526 -0.012269695060864522 0.0
0.006274644107330492 -0.023609438342563856 0.0
0.014238651283657592 -0.045321106025482984 0.0
0.013890609898742549 -0.04529163021964655 0.0
0.014785962851894974 -0.044635741152485905 0.0
0.01898653361803676 -0.03762637850879416 0.0
0.02145082868934601 -0.02662196386827279 0.0
0.013838551712509313 -0.04532326064699942 0.0
0.006091834251613498 -0.021075377516746995 0.0
0.023077892354892545 -0.012620523306236643 0.0
0.02295001905124197 -0.008276805995433385 0.0
0.02232226469833252 -0.018618580102873424 0.0
0.008924062318918522 -0.03637727643367169 0.0
0.009621074862213478 -0.03927167985469182 0.0
0.010581721641691013 -0.013141827048106373 0.0
0.005474328074971675 -0.017649641730999442 0.0
0.018325034779898552 -0.023214196267519405 0.0
0.009391355746857871 -0.03958294072475541 0.0
0.012299385131269474 -0.03521105482063701 0.0
0.012878376311399119 -0.04095607512876126 0.0
0.01207358402367908 -0.03155340296587163 0.0
0.005057006095215694 -0.011774568066328418 0.0
0.021614163247193296 -0.027159643246491314 0.0
0.013129719056828576 -0.042907614740353005 0.0
0.01677818568577319 -0.038337734352220466 0.0
0.015753267655973048 -0.04293364291790387 0.0
0.01728936865056053 -0.03515664489834937 0.0
0.018391140498448907 -0.0229874431935588 0.0
0.015577707384862341 -0.044801743527421 0.0
0.011845493595381871 -0.024202678194843442 0.0
0.01948328608806208 -0.037275802606640276 0.0
0.02036876221101801 -0.03412103817330645 0.0
0.017497026869470744 -0.042300828785887104 0.0
0.01948661110205378 -0.01328921760252809 0.0
0.011866903759957265 -0.012584504104182652 0.0
0.012322748156604415 -0.04438790108266748 0.0
0.01572167114111822 -0.04300673478467302 0.0
0.007577019587619761 -0.03376076790927132 0.0
0.006774604843671765 -0.029933441935220472 0.0
0.015331945687189789 -0.04438050859715916 0.0
0.011552223080049506 -0.02016782607487395 0.0
0.01901292187665484 -0.02846134124876252 0.0
0.01610423466136038 -0.011547462943892946 0.0
0.01638325165620816 -0.04402735277337939 0.0
0.019885229861421258 -0.006878462291412047 0.0
0.010517589270446746 -0.04186598628066699 0.0
0.006245840187110803 -0.02619760256659216 0.0
0.014954057738686691 -0.044995279826742375 0.0
0.01113334502587327 -0.04308615981149725 0.0
0.0161187694462454 -0.041311602788270244 0.0
0.021167955182134317 -0.03165001195485838 0.0
0.014106517652577652 -0.04548871505069628 0.0
0.014587925799229115 -0.007638073333157768 0.0
0.013177953630759597 -0.044579610288558114 0.0
0.013844345166022195 -0.04394825604212175 0.0
0.013177196207302304 -0.02574912748202112 0.0
0.013457265469561707 -0.03709184126818815 0.0
0.013264193635893836 -0.03001814002366326 0.0
0.013555036476487326 -0.03990893317689564 0.0
0.0053891948430760716 -0.018058612414074332 0.0
0.014975091518538482 -0.007223342811707516 0.0
0.017623464929415508 -0.04223534680641968 0.0
0.014144748721509087 -0.04548769444306015 0.0
0.01370106736587966 -0.04531088913739174 0.0
0.011184723503317928 -0.01009537513301904 0.0
0.02290779416882283 -0.02109863045853983 0.0
0.017882522917143377 -0.028128879430583908 0.0
0.017837195231811237 -0.03196336593805382 0.0
0.016631084009438763 -0.03875616697807323 0.0
0.011159061323435103 -0.035420768581707104 0.0
0.011608521006021149 -0.038527238361164146 0.0
0.012665452057902643 -0.043164980611067195 0.0
0.006561453058519497 -0.030014159489105536 0.0
0.005908877520089398 -0.025748096969843863 0.0
0.01182345530554936 -0.041547095650921365 0.0
0.010183429456315165 -0.03268833949022286 0.0
0.010685396515353288 -0.036189392517187224 0.0
0.016260938635692026 -0.02805381238900051 0.0
0.015819815827031115 -0.011862872046437234 0.0
0.008429095547630626 -0.007476601416974514 0.0
0.019479068711776213 -0.006438781403162007 0.0
0.01480348594415479 -0.03988139703430888 0.0
0.01517828424835037 -0.030181779477697592 0.0
0.01452465769111774 -0.043870966268302086 0.0
0.014992412908944997 -0.037041170286636595 0.0
0.01531809056252462 -0.02556315120575044 0.0
0.021823107052466893 -0.024955641300589082 0.0
0.0085500083659736 -0.005857941533032147 0.0
0.01784141034066401 -0.03475892674557255 0.0
0.016722174865032982 -0.040626693546949595 0.0
0.018364349714605852 -0.031079437652671238 0.0
0.013314488912281139 -0.03384741766919244 0.0
0.013622877144962025 -0.040023421032735026 0.0
0.013232524430357825 -0.029979539241148094 0.0
0.015381730496079724 -0.04490430747968401 0.0
0.013686632964936715 -0.04229623559016732 0.0
0.010051246406897479 -0.03161507719710723 0.0
0.009639657566901915 -0.027497070038209937 0.0
0.016665202264225906 -0.043723688330156066 0.0
0.01450177357072846 -0.04531772022641793 0.0
0.011888533004531713 -0.019193315792373322 0.0
0.013208289824237671 -0.02116477508796791 0.0
0.012996769612750458 -0.0162431726700483 0.0
0.012543150095263902 -0.04360783715419153 0.0
0.013270711541726743 -0.02581141504746951 0.0
0.0075456659593342605 -0.033672385957162466 0.0
0.008459683435479355 -0.03701026056013001 0.0
0.014195324563179842 -0.045350150147284454 0.0
0.02133119908846341 -0.029585541704542202 0.0
0.018722723159342695 -0.039625706395142804 0.0
0.011027358904836073 -0.0397076262277926 0.0
0.010430679838662428 -0.03680798851476789 0.0
0.009122909518872261 -0.021862026798385236 0.0
0.02371871261884831 -0.005899443070491095 0.0
0.004958423605367155 -0.007706515817026478 0.0
0.0149307139821158 -0.016236428132179667 0.0
0.01471738037468484 -0.04453915938518785 0.0
0.013861840903370205 -0.043904835692271015 0.0
0.013570474474933482 -0.044394417873137436 0.0
0.012493114500490666 -0.007440765480406287 0.0
0.012743844323530746 -0.044839549082853196 0.0
0.023201499894548956 -0.016280893033807857 0.0
0.013440544026652162 -0.02099390804882322 0.0
0.018578613906194908 -0.011155835883901115 0.0
0.012936309454168217 -0.04421974207513102 0.0
0.013665281950986024 -0.037159376083721794 0.0
0.013818585464976807 -0.042331586849970515 0.0
0.013572639925901134 -0.033940973532674376 0.0
0.009225205283790058 -0.01952864334204784 0.0
0.00942609275978475 -0.02712147207533681 0.0
0.009089261136688419 -0.02255402689742607 0.0
0.0117956515671899 -0.041578146870388105 0.0
0.01116751604556699 -0.03910954307394996 0.0
0.014346044524509936 -0.04494668764090397 0.0
0.01143319322876649 -0.04368107708115594 0.0
0.019491415303646984 -0.018262880361647766 0.0
0.019721003865264194 -0.02570383640592678 0.0
0.01803293209716078 -0.03707342037669942 0.0
0.01370044805581796 -0.044551397300557696 0.0
0.015840266303617775 -0.043861330915471744 0.0
0.0047946838670049445 -0.021366561499938777 0.0
0.008673794771602801 -0.017629125603007993 0.0
0.009101716030907427 -0.015163650224964034 0.0
0.016400588204490217 -0.02315682858206437 0.0
0.01554353822183571 -0.03841717386339265 0.0
0.01586738296334314 -0.03536279649823462 0.0
0.015006475609782922 -0.043052295938068946 0.0
0.017353513200108195 -0.0400316954233681 0.0
0.012883626119402365 -0.038568549584189614 0.0
0.01342258661586048 -0.043182928880230766 0.0
0.01267630666356644 -0.03550818808831475 0.0
0.023084315348037426 -0.010380164346039448 0.0
0.014056812957159739 -0.04504148630952354 0.0
0.0163775501910679 -0.03563456228399506 0.0
0.01661373858545522 -0.03236184070873773 0.0
0.015584926074681574 -0.04141862655290392 0.0
0.01515804273917617 -0.041101495495536926 0.0
0.010420257060793496 -0.04211410331970958 0.0
0.014404600483429493 -0.04537654311700751 0.0
0.015460622353271239 -0.03850913001795115 0.0
0.016092987490786012 -0.027718844408091334 0.0
0.01603370406629102 -0.018701459541007732 0.0
0.018756207272646923 -0.039540345546875084 0.0
0.008823089622463877 -0.010311405771355652 0.0
0.019107742409061258 -0.009776039494565913 0.0
0.020753478959156062 -0.033545812177646205 0.0
0.007874665468263193 -0.017233670632206 0.0
0.013111780393557182 -0.04488484785348485 0.0
0.019339802021859014 -0.01484459381991427 0.0
0.018748991678535602 -0.01534249143227008 0.0