<VTKFile type="UnstructuredGrid"  version="0.1">
<UnstructuredGrid>
<Piece NumberOfPoints="713" NumberOfCells="1304">
<Points>
<DataArray type="Float64" NumberOfComponents="3" format="ascii">
0.0 0.0 0.0
10.0 0.0 0.0
10.0 2.0 0.0
5.0 2.0 0.0
0.0 2.0 0.0
0.199999999999856 0.0 0.0
0.3999999999996677 0.0 0.0
0.5999999999994683 0.0 0.0
0.7999999999993286 0.0 0.0
0.9999999999991888 0.0 0.0
1.199999999999033 0.0 0.0
1.399999999998576 0.0 0.0
1.599999999997992 0.0 0.0
1.799999999997408 0.0 0.0
1.999999999996825 0.0 0.0
2.199999999996241 0.0 0.0
2.399999999995657 0.0 0.0
2.599999999995073 0.0 0.0
2.79999999999449 0.0 0.0
2.999999999993906 0.0 0.0
3.199999999993322 0.0 0.0
3.399999999992738 0.0 0.0
3.599999999992154 0.0 0.0
3.799999999991571 0.0 0.0
3.999999999991022 0.0 0.0
4.199999999991187 0.0 0.0
4.399999999991491 0.0 0.0
4.599999999991795 0.0 0.0
4.799999999992099 0.0 0.0
4.999999999992403 0.0 0.0
5.199999999992706 0.0 0.0
5.39999999999301 0.0 0.0
5.599999999993313 0.0 0.0
5.799999999993618 0.0 0.0
5.999999999993922 0.0 0.0
6.199999999994227 0.0 0.0
6.39999999999453 0.0 0.0
6.599999999994833 0.0 0.0
6.799999999995138 0.0 0.0
6.999999999995442 0.0 0.0
7.199999999995747 0.0 0.0
7.39999999999605 0.0 0.0
7.599999999996353 0.0 0.0
7.799999999996658 0.0 0.0
7.999999999996962 0.0 0.0
8.199999999997265 0.0 0.0
8.399999999997569 0.0 0.0
8.599999999997873 0.0 0.0
8.799999999998176 0.0 0.0
8.99999999999848 0.0 0.0
9.199999999998786 0.0 0.0
9.399999999999089 0.0 0.0
9.599999999999392 0.0 0.0
9.799999999999697 0.0 0.0
10.0 0.1999999999996293 0.0
10.0 0.3999999999991157 0.0
10.0 0.5999999999985328 0.0
10.0 0.7999999999979498 0.0
10.0 0.9999999999973885 0.0
10.0 1.199999999997894 0.0
10.0 1.39999999999842 0.0
10.0 1.599999999998947 0.0
10.0 1.799999999999474 0.0
9.799999999999999 2.0 0.0
9.6 2.0 0.0
9.399999999999999 2.0 0.0
9.2 2.0 0.0
8.999999999999998 2.0 0.0
8.799999999999999 2.0 0.0
8.599999999999998 2.0 0.0
8.399999999999999 2.0 0.0
8.2 2.0 0.0
7.999999999999998 2.0 0.0
7.799999999999999 2.0 0.0
7.599999999999999 2.0 0.0
7.399999999999999 2.0 0.0
7.199999999999999 2.0 0.0
7.0 2.0 0.0
6.799999999999999 2.0 0.0
6.6 2.0 0.0
6.399999999999999 2.0 0.0
6.199999999999999 2.0 0.0
5.999999999999999 2.0 0.0
5.8 2.0 0.0
5.6 2.0 0.0
5.399999999999999 2.0 0.0
5.199999999999999 2.0 0.0
4.8 2.0 0.0
4.6 2.0 0.0
4.399999999999999 2.0 0.0
4.199999999999998 2.0 0.0
3.999999999999999 2.0 0.0
3.799999999999999 2.0 0.0
3.599999999999999 2.0 0.0
3.399999999999999 2.0 0.0
3.199999999999998 2.0 0.0
2.999999999999999 2.0 0.0
2.799999999999999 2.0 0.0
2.599999999999999 2.0 0.0
2.399999999999999 2.0 0.0
2.199999999999999 2.0 0.0
2.0 2.0 0.0
1.799999999999999 2.0 0.0
1.599999999999999 2.0 0.0
1.399999999999999 2.0 0.0
1.199999999999999 2.0 0.0
0.9999999999999991 2.0 0.0
0.7999999999999998 2.0 0.0
0.5999999999999996 2.0 0.0
0.3999999999999995 2.0 0.0
0.1999999999999993 2.0 0.0
0.0 1.799999999999167 0.0
0.0 1.6 0.0
0.0 1.400000000001387 0.0
0.0 1.200000000002774 0.0
0.0 1.000000000004117 0.0
0.0 0.8000000000033287 0.0
0.0 0.6000000000024965 0.0
0.0 0.4000000000016644 0.0
0.0 0.200000000000832 0.0
1.499207686858938 0.9671416246672391 0.0
2.690335006295381 0.9619521672166851 0.0
3.892537609238439 1.007271393615351 0.0
8.916602958236062 0.9848120741100651 0.0
7.714518201951718 1.024234589865042 0.0
6.514518201951581 1.024234589865268 0.0
5.299999999999998 1.000000000000349 0.0
0.7620577975594133 1.201991596673393 0.0
4.61755859746166 1.240410629378135 0.0
2.099999999996533 0.6749999999988996 0.0
3.289480163184942 0.6802242156869155 0.0
8.299999999999976 1.325000000000064 0.0
7.110519836808121 1.319775784312006 0.0
5.893184537067197 1.292851873188582 0.0
3.268568008578649 1.341967835735878 0.0
2.118368267083699 1.321829331075689 0.0
5.930896443153832 0.6493414313150682 0.0
7.106926174231782 0.6329785805444448 0.0
8.306926174233002 0.6329785805444098 0.0
4.427960725065653 0.6389803625370323 0.0
0.9828791719046732 0.6520555711814596 0.0
9.383333333333349 0.6166666666667164 0.0
9.383333333333326 1.383333333333367 0.0
4.974443803660211 0.5526668589022862 0.0
1.248084267804327 1.464555585366204 0.0
4.139486343919472 1.468449088519687 0.0
5.077806736162063 1.478342020848787 0.0
1.629462398503482 0.5098631373669138 0.0
2.579462070540726 0.5133714280880515 0.0
3.770778974032556 0.5099482598296803 0.0
8.764748922637567 1.526880805960684 0.0
7.820537929455645 1.486628571911716 0.0
6.632254923791462 1.492045881343967 0.0
2.796478414430566 1.477149214423874 0.0
6.403521585563812 0.5228507855762514 0.0
7.603521585564883 0.5228507855756581 0.0
8.783559188644787 0.5066440811355862 0.0
0.5060338924245764 0.5082251307884346 0.0
5.451633334958382 0.4799315318847731 0.0
1.683269995544083 1.547372422998862 0.0
0.448590368789599 1.551409631210402 0.0
5.545526974704655 1.582008455135239 0.0
3.666056976948354 1.56999765613834 0.0
0.4385739326402744 0.9352922270094057 0.0
9.58170539854767 0.9922137522194456 0.0
4.93200119575972 0.9247090920592975 0.0
6.20679636316332 1.642443126922768 0.0
7.418963044745086 1.587405313446662 0.0
2.98103695524982 0.412594686552066 0.0
2.420975602092416 1.592770352831584 0.0
7.97902439790374 0.4072296471687943 0.0
6.779024397902082 0.4072296471687297 0.0
1.130444757308209 0.9859238872709168 0.0
0.8901814758011342 1.60566856081121 0.0
4.263670373274499 0.9915754392410991 0.0
3.096698167273431 1.009056907826855 0.0
6.088506433998166 0.9857489435828969 0.0
1.902225037409936 1.003483800311746 0.0
7.288506433998439 0.9857489435828686 0.0
8.498964973312972 1.005823551167602 0.0
2.307571737417198 1.008136792450924 0.0
8.100397971125554 1.000138280273345 0.0
6.900397971125225 1.000138280273792 0.0
3.499307350770321 0.9996496628144824 0.0
5.703656022566558 0.9885479657552226 0.0
4.719420624357892 1.622286409566126 0.0
4.099803549896894 0.3600308081356619 0.0
1.286100671532495 0.3637431910670685 0.0
9.120549139677793 1.655065205594329 0.0
9.11726214008418 0.3400668903113251 0.0
4.642568097328033 0.3514924793220939 0.0
9.630437629189052 0.3309104953729904 0.0
9.674493769554315 1.668196579944218 0.0
1.936458797611609 0.3337070483410596 0.0
3.461817573918652 0.3447876019040473 0.0
8.440152788772068 1.649667667046397 0.0
6.973083089482548 1.643748677366674 0.0
3.126874515006838 1.659115470008545 0.0
6.070607878384977 0.3410183041038941 0.0
7.255014454789089 0.32792256737713 0.0
8.462493615948901 0.3368393217476116 0.0
9.236261261261264 0.9276047786917867 0.0
5.885444386845415 1.667751020273455 0.0
0.8062340689595878 0.3261579034781319 0.0
2.29463843780282 0.308358158429197 0.0
8.10536156219338 1.691641841570632 0.0
4.041916759198581 0.7211683801597477 0.0
1.324377365289917 0.710525897087282 0.0
9.023167917315867 1.292262965009952 0.0
2.044244009166302 1.693807225416931 0.0
0.7675765545556328 0.8969765944392112 0.0
2.86965991063896 0.7069213925303978 0.0
6.330340089355722 1.293078607468788 0.0
7.530340089355831 1.29307860746885 0.0
2.509347777214458 1.27231292939881 0.0
7.890652222779963 0.7276870706009825 0.0
6.690652222780154 0.7276870706013264 0.0
4.380959112578968 1.65866292149053 0.0
0.3278422400819535 1.233362752678148 0.0
5.754468991464942 0.3469215055361071 0.0
9.69195804401614 0.7000195364707393 0.0
9.691250997975434 1.303243780084337 0.0
5.54324561063747 1.237401556904767 0.0
9.044596057577811 0.6843248705785732 0.0
5.208929198448351 0.3519433027337513 0.0
3.708880196230617 1.249762029554333 0.0
1.713349558540635 1.234899745098077 0.0
4.586522821995393 0.9261740906803194 0.0
5.241145838821565 0.7007005766013242 0.0
1.434457446926135 1.701926055218157 0.0
0.2821921707428039 0.3393165318407161 0.0
3.42846431357046 1.714274134409306 0.0
5.26283485467567 1.710141275531951 0.0
3.966530105129177 1.718376080180638 0.0
4.891301048299285 1.259923533724591 0.0
0.2787500712946937 0.6906723798523376 0.0
1.822166578929051 0.7301892210727335 0.0
8.593276160688786 1.287322908694633 0.0
2.386017956680413 0.7288816957021155 0.0
3.576911792171353 0.7225526638483954 0.0
8.013982043315597 1.271118304297217 0.0
6.82303669320588 1.277631295759485 0.0
2.891837633696712 1.215141906356511 0.0
8.708162366297856 0.7848580936429009 0.0
7.496736072543097 0.7897651325976158 0.0
6.296736072542775 0.7897651325982009 0.0
5.523181420933933 0.7588744249744506 0.0
4.725538117155759 0.6529070682798582 0.0
2.736307197014292 0.273961667653487 0.0
7.663692802980817 1.726038332346062 0.0
6.446842959287713 1.783714797320288 0.0
1.126188383272983 1.743715177525389 0.0
2.64757240694847 1.787239829472812 0.0
6.546646507559373 0.2589894635657943 0.0
7.746646507561152 0.2589894635657218 0.0
4.079302268890254 1.221431431691139 0.0
4.433746883463333 0.2983726043497702 0.0
1.032697650548726 1.318076986199429 0.0
1.309492735411376 1.208980965369829 0.0
3.896105387998365 0.2579746081881307 0.0
9.378751775005455 1.725996478164223 0.0
9.3965279828929 0.2649862374471925 0.0
1.515757555362918 0.2603060454608533 0.0
4.959097093232828 1.726144293543605 0.0
4.912501341257775 0.2529154558175828 0.0
4.342421824442713 1.285376618065631 0.0
7.023506283123107 0.293611963231815 0.0
8.215829626877609 0.2682061590942965 0.0
5.28145265730745 1.291130016052329 0.0
8.693992162747364 1.744100892812201 0.0
0.6256567126095668 1.775064851453201 0.0
0.2724967459749605 1.756941612685287 0.0
8.90781713264278 0.2741674349222226 0.0
7.184202236567151 1.709454269177068 0.0
3.212962614055919 0.2641656831057426 0.0
0.6761590188374282 0.6746441670621973 0.0
1.020489328989316 0.2487299689497893 0.0
1.485017749467193 1.402133856149482 0.0
6.734223224917944 1.790518105434539 0.0
2.657549589911705 0.7636227781082678 0.0
6.542590471647475 1.237213715285722 0.0
7.742745187066703 1.235538225115726 0.0
0.5794341726414672 0.2480285055479751 0.0
1.842901067642841 1.760146518280044 0.0
3.84389577648662 0.7524680119172447 0.0
3.061589173628368 1.407936939342627 0.0
6.144447294584154 0.5911674363009913 0.0
7.344447294585433 0.5911674362995804 0.0
8.544447294586682 0.5911674362982269 0.0
5.491507940982565 0.1734458797927824 0.0
[...]
<PointData Vectors="fields">
<DataArray type="Float64" Name="U" NumberOfComponents="3" format="ascii">
0.0 0.0 0.0
0.03452699896879784 0.0 0.0
0.0028124337639028572 -0.006530752786692891 0.0
0.017102107982537567 -0.05527535627655217 0.0
0.03152031524023807 -0.005950813563266984 0.0
0.00035198096204028034 -0.006563477169443657 0.0
0.001063836907675113 -0.01079213925250006 0.0
0.001705526752897018 -0.014529855339681536 0.0
0.0022445494078641606 -0.017819230206263897 0.0
0.0027170244381513465 -0.020958289229992315 0.0
0.0031730244640932465 -0.023974822801631445 0.0
0.0036318822873471187 -0.026879438606470237 0.0
0.004135574256224565 -0.02968708576557446 0.0
0.004656080712060518 -0.032398990251922034 0.0
0.005218119232542105 -0.03498642152918088 0.0
0.005808210030450347 -0.037448396335284934 0.0
0.006451491251061108 -0.03978640562412576 0.0
0.007106453703872324 -0.04198115164678947 0.0
0.007828158513177719 -0.04403231478563008 0.0
0.008548198766980345 -0.04593122808573159 0.0
0.009327034646151365 -0.047669463436379 0.0
0.010109396012626667 -0.04923247789823303 0.0
0.010933362576352745 -0.05063146683104981 0.0
0.011765837902056837 -0.05182074712533119 0.0
0.012608896296644332 -0.052886034438795464 0.0
0.013490780885827882 -0.05374349456547008 0.0
0.014366568603960059 -0.05440803481596236 0.0
0.015270367977509545 -0.054892108183308454 0.0
0.01615914122601111 -0.055175877097025754 0.0
0.017081139358738444 -0.0552777086849167 0.0
0.017973763002009993 -0.05518898269489346 0.0
0.018861578041903873 -0.054905816984044876 0.0
0.019741745543570784 -0.05443756900864708 0.0
0.02060832306329029 -0.05377859618593842 0.0
0.021449870766610982 -0.05294382142450619 0.0
0.022308116276466634 -0.051939875074004806 0.0
0.02311919701803871 -0.05071158686813961 0.0
0.02393237928859735 -0.04936734062939974 0.0
0.024708740295739377 -0.047848595872341484 0.0
0.02548369646779544 -0.04613994359885363 0.0
0.026215187819884963 -0.044276857876716265 0.0
0.026921216025477843 -0.04226741912458052 0.0
0.027577667619416373 -0.04007783484704564 0.0
0.02822123611977971 -0.037798366555843156 0.0
0.02881765329499835 -0.035379131383027854 0.0
0.029394478723029083 -0.032821867288268386 0.0
0.029927494298590252 -0.030137025352681385 0.0
0.030440477793171338 -0.02735265579647394 0.0
0.030911397796761393 -0.024457744464123972 0.0
0.03139403224288894 -0.02144696071702101 0.0
0.03186760920829169 -0.018322638519095123 0.0
0.03239272712499289 -0.015016970220163394 0.0
0.032973486640979675 -0.011423405988046337 0.0
0.03386446228159823 -0.0071346421147803025 0.0
0.029111898013411148 -0.002541299965888544 0.0
0.025621612565802986 -0.003950973882319671 0.0
0.022467227036484027 -0.0048545814181597344 0.0
0.01958203897220428 -0.005543068113489494 0.0
0.016789571693344912 -0.005979956850827429 0.0
0.01405090139280559 -0.006266087943799579 0.0
0.011314042380229487 -0.006438449741363201 0.0
0.008532382505531831 -0.006515259121855901 0.0
0.0056968583625335405 -0.006530735171953925 0.0
0.0028100892229571397 -0.009426294299288663 0.0
0.0028182481260119446 -0.012361543599407923 0.0
0.0028749500740016293 -0.015345363379335205 0.0
0.003005831315590923 -0.01836204374918968 0.0
0.0032218826198835157 -0.021366626013678943 0.0
0.0035132128277188777 -0.024317814422032936 0.0
0.003883243829014556 -0.027227294420562518 0.0
0.004313301797753976 -0.030029969750322988 0.0
0.004804019630965611 -0.03272579391351815 0.0
0.005360678834144765 -0.03531054172225655 0.0
0.0059404824398633545 -0.03775841589375357 0.0
0.0065905317959600845 -0.04007453255853177 0.0
0.0072464876544168005 -0.042245958679215836 0.0
0.007962620499152208 -0.04426527928513235 0.0
0.008697999725276568 -0.04613410732133051 0.0
0.009461397661446519 -0.04783925930851654 0.0
0.010230285777248329 -0.04934052782403715 0.0
0.01104105159726368 -0.05074340815531272 0.0
0.011870340733812462 -0.05192800722919203 0.0
0.012694747607277079 -0.05294233160126871 0.0
0.013555701833841702 -0.053786686095948825 0.0
0.014444410784466767 -0.0544384188778843 0.0
0.01530441773701496 -0.0549039384302468 0.0
0.01620742731893813 -0.05518621537395985 0.0
0.01802159900368473 -0.05515972551118703 0.0
0.018903557562943187 -0.05487254940477892 0.0
0.019778598476472266 -0.05439913636574125 0.0
0.020672164378925134 -0.05374767091926881 0.0
0.021555415605437136 -0.05288382383782554 0.0
0.022434640378639112 -0.051839046135888724 0.0
0.023259048524458488 -0.05062336597746944 0.0
0.024095934891917907 -0.04922677659245456 0.0
0.024906831566800784 -0.047665396205777096 0.0
0.025704843345714885 -0.04592950213018962 0.0
0.02644428039038277 -0.04399438915922832 0.0
0.027170745424666742 -0.041967161422034494 0.0
0.027837761989577603 -0.0397546524463282 0.0
0.028459489430639005 -0.03740267201727339 0.0
0.02905712361915021 -0.03491744027712161 0.0
0.02959740592416676 -0.032306095947759496 0.0
0.03007045889601937 -0.02958746914283463 0.0
0.030505194819080643 -0.026755649762529598 0.0
0.030857954730611762 -0.02384259377746692 0.0
0.031140184382101692 -0.020857848967628836 0.0
0.03133622449604166 -0.017844924134673496 0.0
0.03145344541885175 -0.014817237721331516 0.0
0.031511048984680316 -0.0118212298814495 0.0
0.03152471346260446 -0.008863463177057237 0.0
0.0286148681140964 -0.0059522682955719525 0.0
0.025754581412196657 -0.005937598144030671 0.0
0.022948542536369847 -0.0058697082783902696 0.0
0.020172839292653618 -0.005713640214994656 0.0
0.017406290399387354 -0.005425669120740582 0.0
0.014586852755579438 -0.0050174109309851 0.0
0.011678929151575751 -0.004365049996787463 0.0
0.008539704094918787 -0.0034629064377089324 0.0
0.0048176328296509205 -0.001957355639420827 0.0
0.01677827786808335 -0.028418189864588675 0.0
0.01676901091416073 -0.04322845695324051 0.0
0.017129105432240235 -0.05272536749115444 0.0
0.01712292918355154 -0.022770498674298735 0.0
0.016825436513217443 -0.03906103174106877 0.0
0.016933285155579944 -0.05033619930070591 0.0
0.01708399559770936 -0.055458337059755385 0.0
0.020136390953136615 -0.01728439644168953 0.0
0.017494880884119175 -0.055288273445762315 0.0
0.01346597983633078 -0.03645225814946812 0.0
0.014794516764082456 -0.04870216135204727 0.0
0.013111544416655576 -0.03160463133402866 0.0
0.014351355766432889 -0.045407681557051646 0.0
0.015967273063327715 -0.053767152761838535 0.0
0.019621806311520242 -0.048538030468873436 0.0
0.020758926585676196 -0.0366453458616895 0.0
0.01848061942446437 -0.053594232993771924 0.0
0.02022618517209407 -0.04544816457094386 0.0
0.02153592429154958 -0.03158280824643084 0.0
0.016182111556846648 -0.054835055638640454 0.0
0.012490271274045433 -0.020755896571436727 0.0
0.02218058356647246 -0.015366317796888322 0.0
0.011601108028924171 -0.015577097412430747 0.0
0.017029945193982737 -0.055586276937619306 0.0
0.023365809028355316 -0.024673399928745125 0.0
0.01886694434131968 -0.05379666933581865 0.0
0.016918371040268124 -0.05555805326906747 0.0
0.010982352776736225 -0.03024451008802432 0.0
0.012325949659512524 -0.041988393496404666 0.0
0.014479051183822474 -0.05195844663804308 0.0
0.010100758336594446 -0.024960576491342375 0.0
0.011769850665868033 -0.03771933960083169 0.0
0.013726965449393414 -0.049396748408232286 0.0
0.021473006252860916 -0.044231233186402916 0.0
0.0199131644215993 -0.050989313753630514 0.0
0.02197548331241436 -0.0402779026070232 0.0
0.023592694100605174 -0.02481096797438899 0.0
0.010324178671609749 -0.012942645881257724 0.0
0.018110266315590994 -0.055087929997925784 0.0
0.023964663716826845 -0.030882087525559446 0.0
0.025039187435060416 -0.012519451771715784 0.0
0.015706538293572946 -0.05484450163997429 0.0
0.020399438569753382 -0.0512976406417458 0.0
0.016560283329736337 -0.012059335531811804 0.0
0.016837596736496235 -0.012294995432826767 0.0
0.01706344108256499 -0.0556710604889546 0.0
0.013774519514138325 -0.052106906670561205 0.0
0.011401927155044294 -0.04224141182125387 0.0
0.012150200809535147 -0.04597235001007607 0.0
0.023306448112543742 -0.04018770383003872 0.0
0.023857080129989907 -0.0357979509649206 0.0
0.02147807958742646 -0.04822996203299862 0.0
0.01708672903957966 -0.022985695826822534 0.0
0.02557924570759741 -0.019255123055809856 0.0
0.01706576625773089 -0.05436511633094544 0.0
0.017191938944633296 -0.04712584654528554 0.0
0.017153271092660544 -0.0528918369039401 0.0
0.01719894811824781 -0.03393268835034431 0.0
0.0172178202892374 -0.04370421667966618 0.0
0.01694347592584049 -0.028905658112004556 0.0
0.017225136674668004 -0.0389825162656389 0.0
0.017059329264274385 -0.03430629179782166 0.0
0.017083817455666672 -0.0473377064289413 0.0
0.017103518879341386 -0.05031694886066638 0.0
0.017111894909920315 -0.05450447658014466 0.0
0.017866253036785892 -0.05533328164799053 0.0
0.014551326394651752 -0.053574874161810816 0.0
0.008601114913304933 -0.0253498056005472 0.0
0.008032399274679906 -0.01960620692768777 0.0
0.02631563506561338 -0.0197125203099895 0.0
0.016054244757592852 -0.05520677376006775 0.0
0.026650953766676436 -0.010915183206286682 0.0
0.007588566838564223 -0.011242044040093628 0.0
0.009212021622165046 -0.034318011600837806 0.0
0.012758244214206148 -0.04990561189450391 0.0
0.008889837197472182 -0.02959565659678403 0.0
0.011841309489437943 -0.04656984603219208 0.0
0.02235118276918529 -0.04724749491385836 0.0
0.02011756816594845 -0.05282748721176038 0.0
0.023243965481843716 -0.04391557204224903 0.0
0.025522876555169667 -0.02940624466021171 0.0
0.01780320182538123 -0.01780051562234261 0.0
0.014534220310330716 -0.053665830692107855 0.0
0.007530334562711526 -0.017991444473299662 0.0
0.009625867711805562 -0.0387207038765765 0.0
0.008921122740889778 -0.03409507217187567 0.0
0.01592819257577597 -0.05344017082697573 0.0
0.013398348436642001 -0.025915438431288084 0.0
0.013004292556519402 -0.02111814647386628 0.0
0.025184278848854647 -0.03562167052866755 0.0
0.01596009154556405 -0.017346375741342422 0.0
0.01454309647344951 -0.045013778981399695 0.0
0.015447409110595129 -0.05151749971682497 0.0
0.01416739267480683 -0.0411265864901425 0.0
0.01986607353811674 -0.04125376733148794 0.0
0.020091783790128007 -0.03694927704772536 0.0
0.01900007086627989 -0.049022618314123405 0.0
0.018901516889351395 -0.05458048486765575 0.0
0.0206696232688475 -0.010544034155457079 0.0
0.019222013330647155 -0.0541654886839206 0.0
0.020900846760880026 -0.010178717939292672 0.0
0.012617073480161188 -0.010846084094844735 0.0
0.016527886350855062 -0.05495284207281905 0.0
0.021210382895084246 -0.020831018460840168 0.0
0.017677469546004965 -0.05541493441870809 0.0
0.018490573741447285 -0.05166653291449384 0.0
0.020055043943801622 -0.031370232819028496 0.0
0.016958487662610395 -0.055250578509044385 0.0
0.01739619577844226 -0.055510737100132525 0.0
0.026320804520257465 -0.027346855069141175 0.0
0.007625769013229745 -0.008693658768314197 0.0
0.021948112971297767 -0.04961775943238319 0.0
0.016271702161215023 -0.05532101729266878 0.0
0.020356313963223512 -0.05292440423740916 0.0
0.017210290246684686 -0.05560476192574646 0.0
0.013107972922382596 -0.009178205736745212 0.0
0.013904522381805205 -0.03287503762852789 0.0
0.013351052558748243 -0.027505261014100817 0.0
0.01431182521195222 -0.039879766046790506 0.0
0.015416981682045142 -0.0508153068638491 0.0
0.01398966405804397 -0.03537512071978344 0.0
0.015009600637053248 -0.047956153987196645 0.0
0.018999257739005546 -0.04522280394237679 0.0
0.019789388298167582 -0.02591217350606844 0.0
0.01915569662974404 -0.0415028406700228 0.0
0.018237048269056894 -0.05171691870060035 0.0
0.017627583011749787 -0.05500300250463474 0.0
0.01666340771920066 -0.055441828552014835 0.0
0.010302549660952683 -0.0435452161074263 0.0
0.009436246063177075 -0.039487234112652925 0.0
0.012256324811608425 -0.05056309345723933 0.0
0.027292766664785216 -0.022807840639305008 0.0
0.024806591710501782 -0.042579963851293624 0.0
0.021943419657485388 -0.04991384044990521 0.0
0.025104178457298783 -0.038553674740086946 0.0
0.017982882616470616 -0.05360449392159504 0.0
0.015311722508898836 -0.05470565691760162 0.0
0.02156878638558334 -0.021456385269069764 0.0
0.019964282340822148 -0.025624853263886267 0.0
0.013481564094251304 -0.05254420388103028 0.0
0.006862382538737939 -0.01567875533770027 0.0
0.02776864914961947 -0.01513445687933871 0.0
0.007509852401431092 -0.028625142486929305 0.0
0.017225020664449857 -0.05546539429368932 0.0
0.016789435892511296 -0.055435007854465285 0.0
0.017915388924343557 -0.05458835154560587 0.0
0.022984773288612235 -0.04609413018046923 0.0
0.025980018645466462 -0.032721601065158465 0.0
0.016727595722151184 -0.05544953968588574 0.0
0.007273840327554055 -0.025946566679482426 0.0
0.028142260166329355 -0.015220884547529021 0.0
0.027984166683623263 -0.009919457034408035 0.0
0.027068037399994003 -0.022939138441066865 0.0
0.010750967016384389 -0.04457625895778779 0.0
0.011497313258453035 -0.04793393644376951 0.0
0.01281622570523177 -0.015852586537620294 0.0
0.006567720044150263 -0.021345469787899207 0.0
0.0223349040097555 -0.02813327084750333 0.0
0.011313265135487676 -0.0484752494702532 0.0
0.014865673074937233 -0.04287179302038713 0.0
0.015556428763209857 -0.05011712481911519 0.0
0.014577439937602878 -0.038703315550408096 0.0
0.0060775595794008526 -0.014192971667435285 0.0
0.026393643658559722 -0.03297486024248231 0.0
0.01585413620143771 -0.05243552346235687 0.0
0.020428937839273437 -0.04675518895036343 0.0
0.019070235062101686 -0.05253152715770742 0.0
0.020913723144172502 -0.04308282130595379 0.0
0.022253290204500443 -0.02827863184751162 0.0
0.018869043384763896 -0.05484180720750275 0.0
0.014354505891033622 -0.029334943537205914 0.0
0.023793354329894777 -0.04545288048016161 0.0
0.024656478633371504 -0.0418429670673798 0.0
0.021197657223196675 -0.051781364943328835 0.0
0.02374466528322262 -0.016033203507675297 0.0
0.014287454173462189 -0.01553505088677996 0.0
0.014869850290651888 -0.05432441366517042 0.0
0.019088380112965906 -0.05256106017749635 0.0
0.009015116611849084 -0.041106090642648085 0.0
0.008133093585542197 -0.036751710436825 0.0
0.018563366048046613 -0.05430121880870643 0.0
0.013924475690886813 -0.024829453846799354 0.0
0.023195989721319345 -0.03455991566791736 0.0
0.019593824091998942 -0.013911677847127366 0.0
0.01990245956427861 -0.05385310817360969 0.0
0.024234412603105993 -0.008212598307000819 0.0
0.012591202620618925 -0.05116493314850746 0.0
0.007452798466106711 -0.031798068618517014 0.0
0.01812005750005569 -0.05504405277115833 0.0
0.013422844719498202 -0.052739265378531984 0.0
0.019591219897863568 -0.0504518198837774 0.0
0.025869895201328985 -0.03849480912867994 0.0
0.01706038294856506 -0.05565039862669415 0.0
0.017736872048968212 -0.009152606770630239 0.0
0.015916899736165276 -0.0545402134461765 0.0
0.016735378255547363 -0.05376093256877871 0.0
0.015910819695285613 -0.03164273122741856 0.0
0.016260710885470105 -0.04542300454346551 0.0
0.016087936446453677 -0.036462556555923176 0.0
0.01640525660835097 -0.0487008897161357 0.0
0.006403831170659411 -0.022255000574792523 0.0
0.018063301226086143 -0.008946357137209699 0.0
0.021450062054528266 -0.051621395483440254 0.0
0.01710896202900504 -0.05565256467334859 0.0
0.016557364187959046 -0.05544080022024549 0.0
0.013555747215199409 -0.012151351930906018 0.0
0.027776801667097936 -0.025979279593851122 0.0
0.02163058713579605 -0.034545843219272336 0.0
0.02175228379562869 -0.038863038503296574 0.0
0.020122438818745106 -0.04744977604128393 0.0
0.013468419753273774 -0.04340100434548635 0.0
0.013982545884108764 -0.04698944503422024 0.0
0.01529351213486612 -0.052811464964792776 0.0
0.007802871139124244 -0.03648777005182633 0.0
0.007067440596931339 -0.03165488315648167 0.0
0.014269616103287138 -0.050844195381709194 0.0
0.012282646312095238 -0.040086692841202975 0.0
0.012850111110191926 -0.04409159996801734 0.0
0.019798112584482684 -0.03405129725048812 0.0
0.01910435566734213 -0.014638144957493762 0.0
0.010090211769934958 -0.009290233730829904 0.0
0.023572599621920324 -0.00795270289887498 0.0
0.017963152513504888 -0.04866720930573349 0.0
0.018458204597907136 -0.0366633390126259 0.0
0.01756958067106558 -0.05366718981120962 0.0
0.01812565224973163 -0.0453619705619477 0.0
0.01851153952263203 -0.03141708768293592 0.0
0.02663972383329463 -0.03027455986812876 0.0
0.010341150526641467 -0.00701498161548301 0.0
0.02176000528068532 -0.04231739182986148 0.0
0.020241280006172934 -0.04972519471207905 0.0
0.022216277777149945 -0.038135285259488595 0.0
0.016135495474164416 -0.04118249653382569 0.0
0.01646336372877091 -0.048981300265986155 0.0
0.0159828260421971 -0.03679033328616271 0.0
0.01865123815011869 -0.05494821648115323 0.0
0.016555926585609212 -0.05167065055684608 0.0
0.012099354219297623 -0.03843794965476411 0.0
0.011615276747665115 -0.033775417312470864 0.0
0.0201927269489111 -0.05351966777155634 0.0
0.01755397590369971 -0.05544222171892005 0.0
0.014416121268854352 -0.023219358221390582 0.0
0.016036752635966562 -0.025623930859251857 0.0
0.015672333194949487 -0.02002131215291038 0.0
0.0151127106702733 -0.0533168217999352 0.0
0.016107223509604366 -0.031301899201754954 0.0
0.009075458536548914 -0.04129666399570981 0.0
0.010074215270929094 -0.04512987916004397 0.0
0.017173474309781188 -0.055477807849212385 0.0
0.02582835803150189 -0.03633128931109815 0.0
0.02267365017385136 -0.04852683833728703 0.0
0.013247997586227536 -0.0484624257434942 0.0
0.012582321752376738 -0.04508904607811896 0.0
0.011014675749594902 -0.02647821997869813 0.0
0.028797023296027856 -0.007275398984331681 0.0
0.00585373621117485 -0.009576592301415545 0.0
0.018153284654528493 -0.019619249461697977 0.0
0.017808954199633166 -0.05448684307053093 0.0
0.016765218479749804 -0.05367511924049566 0.0
0.016396872188045645 -0.054288559331373845 0.0
0.015040149274753533 -0.009228969991636369 0.0
0.015383849039083304 -0.05488248818049367 0.0
0.028298612925188756 -0.01968532978549201 0.0
0.016223106684557665 -0.025838896162611015 0.0
0.0226305835046912 -0.013432951024989839 0.0
0.0156016231064849 -0.05407812682699561 0.0
0.016557019821258963 -0.04528412060027941 0.0
0.016703182087797534 -0.051788476477086634 0.0
0.016398823849848306 -0.041600118669577246 0.0
0.01114838391798297 -0.02362918804539244 0.0
0.011359823107104762 -0.0329152713108343 0.0
0.010933628738653674 -0.027748513706064182 0.0
0.014193214241365134 -0.05078778707179881 0.0
0.013475841377235565 -0.0478816614110061 0.0
0.017365034424082177 -0.05497430869834445 0.0
0.013720116913362246 -0.05343285054265838 0.0
0.023757562432057046 -0.022093988586601613 0.0
0.023871978559123378 -0.0315964941088762 0.0
0.021822623266914518 -0.04541446743661814 0.0
0.016558619334243074 -0.05449955182268408 0.0
0.01918275772485946 -0.05367071813932374 0.0
0.005714147157554495 -0.025888940293866465 0.0
0.01041211644311426 -0.02172470259919546 0.0
0.010926067956423776 -0.01870311547694253 0.0
0.0198273843571453 -0.02848291753938415 0.0
0.018892353436243625 -0.04684856812928295 0.0
0.019186116237307187 -0.043327587110476906 0.0
0.018156859041460537 -0.052669668115772346 0.0
0.021132633099791714 -0.048867024669954975 0.0
0.015574274414086715 -0.047035524958297444 0.0
0.016219159340798265 -0.052827714228943924 0.0
0.015311541495372451 -0.043502620009967734 0.0
0.02814862376717346 -0.01248732968509713 0.0
0.016997352650074113 -0.055099133379126634 0.0
0.019940222990220198 -0.04339642440172741 0.0
0.02008924944001427 -0.039687538179602425 0.0
0.018857540460505674 -0.05068143695427164 0.0
0.018398148151223558 -0.05018552899671856 0.0
0.012557506470456377 -0.05155668075433084 0.0
0.017429649694603252 -0.05552475539208208 0.0
0.01869742768149963 -0.04714439091800082 0.0
0.01945443686293003 -0.034043257515510135 0.0
0.019377375438407955 -0.023033366605927315 0.0
0.022876730796340422 -0.04826758645777219 0.0
0.010574341321076456 -0.012757062185580176 0.0
0.02312550754003784 -0.012063145338126267 0.0
0.025366545985989072 -0.040834683274588134 0.0
0.009501443776944668 -0.020833399374857665 0.0
0.015818149317474137 -0.05491487373197376 0.0
0.02341673506027273 -0.018301632148156336 0.0
0.0228421575028841 -0.01853404732632834 0.0
0.018042265084570328 -0.05273997442194617 0.0