<VTKFile type="UnstructuredGrid"  version="0.1">
<UnstructuredGrid>
<Piece NumberOfPoints="713" NumberOfCells="1304">
<Points>
<DataArray type="Float64" NumberOfComponents="3" format="ascii">
0.0 0.0 0.0
10.0 0.0 0.0
10.0 2.0 0.0
5.0 2.0 0.0
0.0 2.0 0.0
0.199999999999856 0.0 0.0
0.3999999999996677 0.0 0.0
0.5999999999994683 0.0 0.0
0.7999999999993286 0.0 0.0
0.9999999999991888 0.0 0.0
1.199999999999033 0.0 0.0
1.399999999998576 0.0 0.0
1.599999999997992 0.0 0.0
1.799999999997408 0.0 0.0
1.999999999996825 0.0 0.0
2.199999999996241 0.0 0.0
2.399999999995657 0.0 0.0
2.599999999995073 0.0 0.0
2.79999999999449 0.0 0.0
2.999999999993906 0.0 0.0
3.199999999993322 0.0 0.0
3.399999999992738 0.0 0.0
3.599999999992154 0.0 0.0
3.799999999991571 0.0 0.0
3.999999999991022 0.0 0.0
4.199999999991187 0.0 0.0
4.399999999991491 0.0 0.0
4.599999999991795 0.0 0.0
4.799999999992099 0.0 0.0
4.999999999992403 0.0 0.0
5.199999999992706 0.0 0.0
5.39999999999301 0.0 0.0
5.599999999993313 0.0 0.0
5.799999999993618 0.0 0.0
5.999999999993922 0.0 0.0
6.199999999994227 0.0 0.0
6.39999999999453 0.0 0.0
6.599999999994833 0.0 0.0
6.799999999995138 0.0 0.0
6.999999999995442 0.0 0.0
7.199999999995747 0.0 0.0
7.39999999999605 0.0 0.0
7.599999999996353 0.0 0.0
7.799999999996658 0.0 0.0
7.999999999996962 0.0 0.0
8.199999999997265 0.0 0.0
8.399999999997569 0.0 0.0
8.599999999997873 0.0 0.0
8.799999999998176 0.0 0.0
8.99999999999848 0.0 0.0
9.199999999998786 0.0 0.0
9.399999999999089 0.0 0.0
9.599999999999392 0.0 0.0
9.799999999999697 0.0 0.0
10.0 0.1999999999996293 0.0
10.0 0.3999999999991157 0.0
10.0 0.5999999999985328 0.0
10.0 0.7999999999979498 0.0
10.0 0.9999999999973885 0.0
10.0 1.199999999997894 0.0
10.0 1.39999999999842 0.0
10.0 1.599999999998947 0.0
10.0 1.799999999999474 0.0
9.799999999999999 2.0 0.0
9.6 2.0 0.0
9.399999999999999 2.0 0.0
9.2 2.0 0.0
8.999999999999998 2.0 0.0
8.799999999999999 2.0 0.0
8.599999999999998 2.0 0.0
8.399999999999999 2.0 0.0
8.2 2.0 0.0
7.999999999999998 2.0 0.0
7.799999999999999 2.0 0.0
7.599999999999999 2.0 0.0
7.399999999999999 2.0 0.0
7.199999999999999 2.0 0.0
7.0 2.0 0.0
6.799999999999999 2.0 0.0
6.6 2.0 0.0
6.399999999999999 2.0 0.0
6.199999999999999 2.0 0.0
5.999999999999999 2.0 0.0
5.8 2.0 0.0
5.6 2.0 0.0
5.399999999999999 2.0 0.0
5.199999999999999 2.0 0.0
4.8 2.0 0.0
4.6 2.0 0.0
4.399999999999999 2.0 0.0
4.199999999999998 2.0 0.0
3.999999999999999 2.0 0.0
3.799999999999999 2.0 0.0
3.599999999999999 2.0 0.0
3.399999999999999 2.0 0.0
3.199999999999998 2.0 0.0
2.999999999999999 2.0 0.0
2.799999999999999 2.0 0.0
2.599999999999999 2.0 0.0
2.399999999999999 2.0 0.0
2.199999999999999 2.0 0.0
2.0 2.0 0.0
1.799999999999999 2.0 0.0
1.599999999999999 2.0 0.0
1.399999999999999 2.0 0.0
1.199999999999999 2.0 0.0
0.9999999999999991 2.0 0.0
0.7999999999999998 2.0 0.0
0.5999999999999996 2.0 0.0
0.3999999999999995 2.0 0.0
0.1999999999999993 2.0 0.0
0.0 1.799999999999167 0.0
0.0 1.6 0.0
0.0 1.400000000001387 0.0
0.0 1.200000000002774 0.0
0.0 1.000000000004117 0.0
0.0 0.8000000000033287 0.0
0.0 0.6000000000024965 0.0
0.0 0.4000000000016644 0.0
0.0 0.200000000000832 0.0
1.499207686858938 0.9671416246672391 0.0
2.690335006295381 0.9619521672166851 0.0
3.892537609238439 1.007271393615351 0.0
8.916602958236062 0.9848120741100651 0.0
7.714518201951718 1.024234589865042 0.0
6.514518201951581 1.024234589865268 0.0
5.299999999999998 1.000000000000349 0.0
0.7620577975594133 1.201991596673393 0.0
4.61755859746166 1.240410629378135 0.0
2.099999999996533 0.6749999999988996 0.0
3.289480163184942 0.6802242156869155 0.0
8.299999999999976 1.325000000000064 0.0
7.110519836808121 1.319775784312006 0.0
5.893184537067197 1.292851873188582 0.0
3.268568008578649 1.341967835735878 0.0
2.118368267083699 1.321829331075689 0.0
5.930896443153832 0.6493414313150682 0.0
7.106926174231782 0.6329785805444448 0.0
8.306926174233002 0.6329785805444098 0.0
4.427960725065653 0.6389803625370323 0.0
0.9828791719046732 0.6520555711814596 0.0
9.383333333333349 0.6166666666667164 0.0
9.383333333333326 1.383333333333367 0.0
4.974443803660211 0.5526668589022862 0.0
1.248084267804327 1.464555585366204 0.0
4.139486343919472 1.468449088519687 0.0
5.077806736162063 1.478342020848787 0.0
1.629462398503482 0.5098631373669138 0.0
2.579462070540726 0.5133714280880515 0.0
3.770778974032556 0.5099482598296803 0.0
8.764748922637567 1.526880805960684 0.0
7.820537929455645 1.486628571911716 0.0
6.632254923791462 1.492045881343967 0.0
2.796478414430566 1.477149214423874 0.0
6.403521585563812 0.5228507855762514 0.0
7.603521585564883 0.5228507855756581 0.0
8.783559188644787 0.5066440811355862 0.0
0.5060338924245764 0.5082251307884346 0.0
5.451633334958382 0.4799315318847731 0.0
1.683269995544083 1.547372422998862 0.0
0.448590368789599 1.551409631210402 0.0
5.545526974704655 1.582008455135239 0.0
3.666056976948354 1.56999765613834 0.0
0.4385739326402744 0.9352922270094057 0.0
9.58170539854767 0.9922137522194456 0.0
4.93200119575972 0.9247090920592975 0.0
6.20679636316332 1.642443126922768 0.0
7.418963044745086 1.587405313446662 0.0
2.98103695524982 0.412594686552066 0.0
2.420975602092416 1.592770352831584 0.0
7.97902439790374 0.4072296471687943 0.0
6.779024397902082 0.4072296471687297 0.0
1.130444757308209 0.9859238872709168 0.0
0.8901814758011342 1.60566856081121 0.0
4.263670373274499 0.9915754392410991 0.0
3.096698167273431 1.009056907826855 0.0
6.088506433998166 0.9857489435828969 0.0
1.902225037409936 1.003483800311746 0.0
7.288506433998439 0.9857489435828686 0.0
8.498964973312972 1.005823551167602 0.0
2.307571737417198 1.008136792450924 0.0
8.100397971125554 1.000138280273345 0.0
6.900397971125225 1.000138280273792 0.0
3.499307350770321 0.9996496628144824 0.0
5.703656022566558 0.9885479657552226 0.0
4.719420624357892 1.622286409566126 0.0
4.099803549896894 0.3600308081356619 0.0
1.286100671532495 0.3637431910670685 0.0
9.120549139677793 1.655065205594329 0.0
9.11726214008418 0.3400668903113251 0.0
4.642568097328033 0.3514924793220939 0.0
9.630437629189052 0.3309104953729904 0.0
9.674493769554315 1.668196579944218 0.0
1.936458797611609 0.3337070483410596 0.0
3.461817573918652 0.3447876019040473 0.0
8.440152788772068 1.649667667046397 0.0
6.973083089482548 1.643748677366674 0.0
3.126874515006838 1.659115470008545 0.0
6.070607878384977 0.3410183041038941 0.0
7.255014454789089 0.32792256737713 0.0
8.462493615948901 0.3368393217476116 0.0
9.236261261261264 0.9276047786917867 0.0
5.885444386845415 1.667751020273455 0.0
0.8062340689595878 0.3261579034781319 0.0
2.29463843780282 0.308358158429197 0.0
8.10536156219338 1.691641841570632 0.0
4.041916759198581 0.7211683801597477 0.0
1.324377365289917 0.710525897087282 0.0
9.023167917315867 1.292262965009952 0.0
2.044244009166302 1.693807225416931 0.0
0.7675765545556328 0.8969765944392112 0.0
2.86965991063896 0.7069213925303978 0.0
6.330340089355722 1.293078607468788 0.0
7.530340089355831 1.29307860746885 0.0
2.509347777214458 1.27231292939881 0.0
7.890652222779963 0.7276870706009825 0.0
6.690652222780154 0.7276870706013264 0.0
4.380959112578968 1.65866292149053 0.0
0.3278422400819535 1.233362752678148 0.0
5.754468991464942 0.3469215055361071 0.0
9.69195804401614 0.7000195364707393 0.0
9.691250997975434 1.303243780084337 0.0
5.54324561063747 1.237401556904767 0.0
9.044596057577811 0.6843248705785732 0.0
5.208929198448351 0.3519433027337513 0.0
3.708880196230617 1.249762029554333 0.0
1.713349558540635 1.234899745098077 0.0
4.586522821995393 0.9261740906803194 0.0
5.241145838821565 0.7007005766013242 0.0
1.434457446926135 1.701926055218157 0.0
0.2821921707428039 0.3393165318407161 0.0
3.42846431357046 1.714274134409306 0.0
5.26283485467567 1.710141275531951 0.0
3.966530105129177 1.718376080180638 0.0
4.891301048299285 1.259923533724591 0.0
0.2787500712946937 0.6906723798523376 0.0
1.822166578929051 0.7301892210727335 0.0
8.593276160688786 1.287322908694633 0.0
2.386017956680413 0.7288816957021155 0.0
3.576911792171353 0.7225526638483954 0.0
8.013982043315597 1.271118304297217 0.0
6.82303669320588 1.277631295759485 0.0
2.891837633696712 1.215141906356511 0.0
8.708162366297856 0.7848580936429009 0.0
7.496736072543097 0.7897651325976158 0.0
6.296736072542775 0.7897651325982009 0.0
5.523181420933933 0.7588744249744506 0.0
4.725538117155759 0.6529070682798582 0.0
2.736307197014292 0.273961667653487 0.0
7.663692802980817 1.726038332346062 0.0
6.446842959287713 1.783714797320288 0.0
1.126188383272983 1.743715177525389 0.0
2.64757240694847 1.787239829472812 0.0
6.546646507559373 0.2589894635657943 0.0
7.746646507561152 0.2589894635657218 0.0
4.079302268890254 1.221431431691139 0.0
4.433746883463333 0.2983726043497702 0.0
1.032697650548726 1.318076986199429 0.0
1.309492735411376 1.208980965369829 0.0
3.896105387998365 0.2579746081881307 0.0
9.378751775005455 1.725996478164223 0.0
9.3965279828929 0.2649862374471925 0.0
1.515757555362918 0.2603060454608533 0.0
4.959097093232828 1.726144293543605 0.0
4.912501341257775 0.2529154558175828 0.0
4.342421824442713 1.285376618065631 0.0
7.023506283123107 0.293611963231815 0.0
8.215829626877609 0.2682061590942965 0.0
5.28145265730745 1.291130016052329 0.0
8.693992162747364 1.744100892812201 0.0
0.6256567126095668 1.775064851453201 0.0
0.2724967459749605 1.756941612685287 0.0
8.90781713264278 0.2741674349222226 0.0
7.184202236567151 1.709454269177068 0.0
3.212962614055919 0.2641656831057426 0.0
0.6761590188374282 0.6746441670621973 0.0
1.020489328989316 0.2487299689497893 0.0
1.485017749467193 1.402133856149482 0.0
6.734223224917944 1.790518105434539 0.0
2.657549589911705 0.7636227781082678 0.0
6.542590471647475 1.237213715285722 0.0
7.742745187066703 1.235538225115726 0.0
0.5794341726414672 0.2480285055479751 0.0
1.842901067642841 1.760146518280044 0.0
3.84389577648662 0.7524680119172447 0.0
3.061589173628368 1.407936939342627 0.0
6.144447294584154 0.5911674363009913 0.0
7.344447294585433 0.5911674362995804 0.0
8.544447294586682 0.5911674362982269 0.0
5.491507940982565 0.1734458797927824 0.0
[...]
<PointData Vectors="fields">
<DataArray type="Float64" Name="U" NumberOfComponents="3" format="ascii">
0.0 0.0 0.0
0.024803380093470818 0.0 0.0
0.0020290115496435436 -0.004570845296303951 0.0
0.012276025044124252 -0.03959099705005978 0.0
0.02262213186340891 -0.004277101459448823 0.0
0.00025149126159988147 -0.004709101058120805 0.0
0.0007618380270709974 -0.007748323347870514 0.0
0.001223223246449777 -0.010436019503143677 0.0
0.0016128482296813695 -0.012801110428263368 0.0
0.0019557938673950555 -0.015057438020851634 0.0
0.0022871372850244522 -0.01722457138134968 0.0
0.00262026859462704 -0.019309901098033676 0.0
0.0029850913287756175 -0.02132417822997454 0.0
0.0033609405786972943 -0.023268407170089458 0.0
0.003765810377159667 -0.02512199839132574 0.0
0.004190364286839839 -0.02688474988290947 0.0
0.004653316992089441 -0.028557987319421857 0.0
0.005125398094623065 -0.030128063558350744 0.0
0.005646841381580866 -0.03159490335256119 0.0
0.006168710202425313 -0.032952117964875294 0.0
0.006734663625044709 -0.03419373808672208 0.0
0.007304441719535896 -0.035309067759826215 0.0
0.007904460395717199 -0.036306000398234776 0.0
0.008508857968149128 -0.03715177173778198 0.0
0.009118572604678878 -0.037908204141464695 0.0
0.009750872471262625 -0.038514987494923714 0.0
0.010373516380935376 -0.038983994991726875 0.0
0.011011573396916158 -0.03932424789623489 0.0
0.011636421597649525 -0.039522318886544235 0.0
0.012284462593043487 -0.039591702222577095 0.0
0.01291279248150451 -0.03952646765762115 0.0
0.01353955385326564 -0.03932389928621064 0.0
0.014162705418859056 -0.038990373837355416 0.0
0.01477782932670639 -0.03852151157154723 0.0
0.0153767894906989 -0.037927416698740495 0.0
0.01598959708099385 -0.037212421575048976 0.0
0.016571612381072014 -0.036336305758106834 0.0
0.017157348310210617 -0.035376104802314054 0.0
0.017719568311780766 -0.0342900244150589 0.0
0.018284234089390294 -0.03306570270231944 0.0
0.01881976730812995 -0.031728813607566464 0.0
0.019338367755746145 -0.030285082965758707 0.0
0.019822065262550318 -0.028709681768003995 0.0
0.020296209129649155 -0.027068762216238013 0.0
0.02073525853572924 -0.025325996863360324 0.0
0.02115845585560353 -0.02348331233699896 0.0
0.021547671898271423 -0.021548727827662036 0.0
0.02191940919308111 -0.01954332753023205 0.0
0.022257826493548225 -0.01746012997800635 0.0
0.022601159309683504 -0.01529592333626944 0.0
0.022935489335430208 -0.013053338397822026 0.0
0.02330427993800879 -0.010684916036824194 0.0
0.023711185073513687 -0.008116019042870204 0.0
0.024336766237195318 -0.005059971367008433 0.0
0.02095336317465054 -0.0017898604622515611 0.0
0.01845532615066828 -0.002779095130323181 0.0
0.016191343222152457 -0.003410569713863132 0.0
0.014114391003187668 -0.0038892110782530265 0.0
0.012101481852507244 -0.004191343965809107 0.0
0.010125708223717566 -0.004388491373628071 0.0
0.00815139037773133 -0.004507192313530613 0.0
0.006146504169266695 -0.0045601312187291895 0.0
0.004104630840724856 -0.004570826553831644 0.0
0.0020273924841846484 -0.0066541689645527105 0.0
0.0020330419520222403 -0.008765001870004934 0.0
0.002072389605461137 -0.010909623501262764 0.0
0.0021636204425432275 -0.013077594874912054 0.0
0.0023152825970362357 -0.015237875561516172 0.0
0.0025215081904933923 -0.017361399939941097 0.0
0.0027847871135566736 -0.01945604398025251 0.0
0.0030926095098805376 -0.021475098957691986 0.0
0.0034451813788211397 -0.023417549135280744 0.0
0.003846238395272562 -0.02527985556560571 0.0
0.0042649912844421305 -0.027042936600864504 0.0
0.004735880237534657 -0.02871016626223105 0.0
0.005212333972789066 -0.030271978803604983 0.0
0.005733787304869115 -0.031722803428915675 0.0
0.006269690364610251 -0.03306383115882579 0.0
0.006825310913817606 -0.03428552898743789 0.0
0.0073826732765813466 -0.03535877776092948 0.0
0.00796827205277682 -0.03636091885558264 0.0
0.008563858164663703 -0.03720527799866661 0.0
0.009153157291435223 -0.03792738667023293 0.0
0.009766403655249535 -0.0385279808910195 0.0
0.010397575089216803 -0.03899148928023496 0.0
0.011006824742551248 -0.03932310852760861 0.0
0.01164502859709408 -0.03952515663459142 0.0
0.012924103995279039 -0.03951214412908905 0.0
0.013546542959545946 -0.0393120441771278 0.0
0.01416689782834973 -0.03897947903323757 0.0
0.014804937431967197 -0.038520037247823324 0.0
0.01543983063360227 -0.03790821594135482 0.0
0.016073881728306556 -0.03716617886063857 0.0
0.01666801170100342 -0.03630100770897185 0.0
0.0172685638149711 -0.03530567152910615 0.0
0.01784775019378448 -0.034191579848209135 0.0
0.01841605604558539 -0.032952000766938945 0.0
0.01894340979612717 -0.031569195621073756 0.0
0.019462842320194806 -0.030119862659710013 0.0
0.019942398139511142 -0.028537217195135127 0.0
0.020391388385461576 -0.026853766037136996 0.0
0.02082449329862512 -0.025073865558746355 0.0
0.021217112490545205 -0.02320235754161782 0.0
0.02156179169400903 -0.02125270505400485 0.0
0.021879472972931184 -0.01922022092583032 0.0
0.022137834491787432 -0.017128101551868977 0.0
0.02234472712391805 -0.014983415768065892 0.0
0.022488347241406886 -0.01281827218164652 0.0
0.02257387521285536 -0.010642742800133765 0.0
0.0226156842493504 -0.00849102108626659 0.0
0.02262538381971613 -0.006367581229504231 0.0
0.020536815866706703 -0.004278232274441305 0.0
0.01848441688866244 -0.004267851766596203 0.0
0.016471817359081445 -0.004218930741630123 0.0
0.01448167450601065 -0.00410597784608179 0.0
0.012498406990744011 -0.0038973016583742706 0.0
0.010476593957224467 -0.003601732715244056 0.0
0.008390016437380542 -0.003130374708965312 0.0
0.006135412773338065 -0.002480559802813195 0.0
0.0034607274892820062 -0.0014002343981819568 0.0
0.012043673602584116 -0.020416232432768088 0.0
0.012037085045529227 -0.031022608213488664 0.0
0.012303857026738878 -0.03780115431341235 0.0
0.012334483394694477 -0.016246328490427838 0.0
0.012103135436558886 -0.027983137643409844 0.0
0.01216901798917553 -0.03607307455841797 0.0
0.01227503228566143 -0.03971586960830624 0.0
0.014454169501229758 -0.012416197268381215 0.0
0.012560388434235153 -0.03960462880610742 0.0
0.009672729927002436 -0.026173017614103202 0.0
0.010636686133424642 -0.03493598923157624 0.0
0.009433729746293187 -0.022609825626863225 0.0
0.010322473951172894 -0.0325465861767374 0.0
0.011482114730040243 -0.0385148294411905 0.0
0.014075352281741532 -0.034816542990838334 0.0
0.014887294214555518 -0.02631276407800191 0.0
0.013265588483385002 -0.03839123892849628 0.0
0.014527960855719507 -0.032574801448765456 0.0
0.01550473146972271 -0.022593223150941776 0.0
0.011647427291985908 -0.03928644868932086 0.0
0.008972404876000862 -0.014913003165222464 0.0
0.01598325658716511 -0.010932723334729897 0.0
0.00835658946085756 -0.011077034983178073 0.0
0.012242536974597215 -0.03980903951615587 0.0
0.016762406018159558 -0.017726984042173728 0.0
0.01352868361602571 -0.03855799151972616 0.0
0.012153371570485912 -0.039789128271815855 0.0
0.007893557397990693 -0.02172526965264926 0.0
0.00885935040749166 -0.030135029949177623 0.0
0.010430978101026398 -0.037255021343398954 0.0
0.007266609774335925 -0.01782313980570538 0.0
0.00846370432533294 -0.027015930247258214 0.0
0.009881192793164184 -0.03540230980840893 0.0
0.015394629267848195 -0.031738972433489554 0.0
0.014287250904147657 -0.03653677079526571 0.0
0.01579853401996437 -0.02885833919393148 0.0
0.016993502636631522 -0.017714183294291797 0.0
0.007417825664710668 -0.009294077458915495 0.0
0.013003503257649693 -0.03945261564743016 0.0
0.01718458708875387 -0.0221830717676436 0.0
0.017970720063606498 -0.008992187535286899 0.0
0.011296118415611959 -0.039280206052608915 0.0
0.01462719588888567 -0.036784140562918365 0.0
0.01189249179845026 -0.008659243618507274 0.0
0.012137317418181661 -0.008727740357406907 0.0
0.0122617437973968 -0.03986922472284925 0.0
0.009920620625944832 -0.03733400347982214 0.0
0.00820045557027505 -0.03027073794373554 0.0
0.008741463304634916 -0.03298436788603515 0.0
0.016704117474150505 -0.02884807890135083 0.0
0.017164614381221105 -0.02563088215395175 0.0
0.01541057357117762 -0.034565847192016136 0.0
0.01226641874296598 -0.0165154083668909 0.0
0.018354329881578132 -0.013832585953412324 0.0
0.01226153192346852 -0.03895821938311973 0.0
0.012341985890759017 -0.03380917417584431 0.0
0.012324208288495567 -0.0378925214740609 0.0
0.012343391254653752 -0.02436939212601183 0.0
0.01237912787735249 -0.03132363505856886 0.0
0.012199376708177032 -0.020664146728209463 0.0
0.012361808388466218 -0.02798502603714972 0.0
0.012277211335689995 -0.024557160650122124 0.0
0.012278790501656945 -0.033930269400570284 0.0
0.012282578526084562 -0.036088230737629276 0.0
0.012294568959343579 -0.03903828700886077 0.0
0.012818132550680223 -0.039635782353646204 0.0
0.010496309342231582 -0.038398766726639236 0.0
0.006184429764038726 -0.018213262286737007 0.0
0.0057801708496709354 -0.013971232937364969 0.0
0.01895278129059242 -0.014049518196438153 0.0
0.011560917127521372 -0.0395455995618476 0.0
0.01919340277650532 -0.007751836192192605 0.0
0.005466195792582155 -0.007960723472951427 0.0
0.006626353866982792 -0.02464408130752886 0.0
0.009194821101150542 -0.035793034820977405 0.0
0.006390838499200988 -0.021162041571333536 0.0
0.008524384011780363 -0.03337891059651412 0.0
0.016022669736288554 -0.033893490844075246 0.0
0.014428928552773078 -0.037845390504233994 0.0
0.016692104944260468 -0.03147270454041581 0.0
0.018377932615655485 -0.02102345241507067 0.0
0.012829617857606583 -0.012675789407062293 0.0
0.01046300645814203 -0.038442599930120135 0.0
0.00541143411884274 -0.012925614663099327 0.0
0.006924345624049025 -0.02779624387909968 0.0
0.006411670721884037 -0.024404451135332923 0.0
0.011461992224415393 -0.03830599508100404 0.0
0.009623628131481843 -0.01861991130384292 0.0
0.009364273798973921 -0.015058038686997389 0.0
0.018051224442586743 -0.025579720328480226 0.0
0.011461148182552554 -0.012460895977041263 0.0
0.010448490964851427 -0.03229960162331061 0.0
0.011111356873582435 -0.03691512930703006 0.0
0.010189419790513798 -0.0294697271600574 0.0
0.014248144917119366 -0.029610427063711555 0.0
0.014455335441925683 -0.02646178191976679 0.0
0.013642625728325556 -0.03513438205013039 0.0
0.013548980169112115 -0.039109291042382366 0.0
0.01483818883772213 -0.00757210710507155 0.0
0.013791909952437228 -0.0387969265924512 0.0
0.015066157898643368 -0.007219553694792888 0.0
0.009091923303037507 -0.00768075213674152 0.0
0.011880183460451428 -0.039356906415352055 0.0
0.015281614178302944 -0.014852186722044308 0.0
0.01269956338454653 -0.039685943955848076 0.0
0.01326785931520432 -0.03704874633403327 0.0
0.014386940564085569 -0.022533417345864448 0.0
0.012188166573477675 -0.03957760483795138 0.0
0.01249772509282495 -0.03975317871059199 0.0
0.018876783694991503 -0.019646132587928293 0.0
0.005479132601700351 -0.006239025163128394 0.0
0.015735343459827696 -0.03558554270879873 0.0
0.01169452298486355 -0.0396198478962899 0.0
0.014589070215521612 -0.03793972463477943 0.0
0.012360876207673904 -0.03982383766053001 0.0
0.009416474695171859 -0.006587795279122612 0.0
0.009986402865484644 -0.023611043147986562 0.0
0.009609274430390499 -0.019655574466874305 0.0
0.010278767348159579 -0.02862655929167148 0.0
0.011087632001017235 -0.03644338781533746 0.0
0.01006435544470882 -0.025327336883607988 0.0
0.010795992615046449 -0.03437296778195105 0.0
0.013630143142689477 -0.032448199727568364 0.0
0.014253769044966613 -0.018507180414970948 0.0
0.013772806141563131 -0.029740642593162843 0.0
0.013094765817549595 -0.037056127349054814 0.0
0.012660421214746852 -0.03939216611777292 0.0
0.011985035107040035 -0.03971005769198625 0.0
0.0074144578809669116 -0.03124811824419704 0.0
0.006783384996419442 -0.02828846343832809 0.0
0.008834380810921205 -0.036233429158997736 0.0
0.01957995341654961 -0.016385714260295357 0.0
0.01777350873832632 -0.030558368872634165 0.0
0.015735792370765403 -0.035768236487096275 0.0
0.018051163000012378 -0.027615213834884897 0.0
0.01290536951628293 -0.03842285628386743 0.0
0.011038831383569252 -0.03919451657509123 0.0
0.01547783091089525 -0.015415575608130304 0.0
0.014325619771762587 -0.018410941814938134 0.0
0.00973170070140557 -0.037668544587674865 0.0
0.004940969457627881 -0.011148968736120146 0.0
0.019993519379399693 -0.010767987963575965 0.0
0.005403944462876784 -0.020563483830110432 0.0
0.012366173289546404 -0.03972566049575672 0.0
0.012076898796700418 -0.03970348724841275 0.0
0.012855807015469518 -0.03911529080293923 0.0
0.01649599438773627 -0.03303556001393954 0.0
0.018700230186789575 -0.023412702091180987 0.0
0.012021073006349298 -0.03971015896660714 0.0
0.005228290457537763 -0.018533395763092955 0.0
0.020196157045975046 -0.010933024335382673 0.0
0.020084069489381167 -0.00712552490811362 0.0
0.019493933161319903 -0.016367693960679865 0.0
0.0077366794556316615 -0.031948124277978995 0.0
0.008284132791999714 -0.034385154028262276 0.0
0.009206675764292028 -0.011386795789769396 0.0
0.004722086183872996 -0.015336522684586703 0.0
0.016020756420425376 -0.02021134757225479 0.0
0.00815280314951631 -0.034741956238986946 0.0
0.010676584825720894 -0.030767426991046135 0.0
0.011187938961491667 -0.03591702534041462 0.0
0.010485528399761936 -0.027725194601584763 0.0
0.004366436005495487 -0.0101938059109285 0.0
0.018920680831418853 -0.023682931699363738 0.0
0.01140443063586183 -0.037594988822908945 0.0
0.014650646634800214 -0.03354256829777704 0.0
0.013685281203985308 -0.037635350286572694 0.0
0.015027712283451379 -0.03087601941073834 0.0
0.016025878727273433 -0.020211576690394903 0.0
0.013542922827333076 -0.03927789005774691 0.0
0.010308479770881158 -0.02107354986687701 0.0
0.017050672200175167 -0.03261147737752278 0.0
0.01771443930386107 -0.02998220305979719 0.0
0.015199038109166662 -0.037100225876608335 0.0
0.017041150402043362 -0.011516765027459023 0.0
0.01029505365823579 -0.011048427419202561 0.0
0.010701450861834855 -0.038910532311439705 0.0
0.013690220505871842 -0.03768366008044257 0.0
0.006489276648257308 -0.029502979405136086 0.0
0.005843669653676314 -0.02631840233554661 0.0
0.013324061643328203 -0.03889349624701482 0.0
0.010025066896853896 -0.017728234470383707 0.0
0.016630752673138238 -0.024819283083643767 0.0
0.014066566337949584 -0.009991277172646211 0.0
0.014260727424718907 -0.038596280294432565 0.0
0.0173940206229061 -0.005899886512579605 0.0
0.009087163226543068 -0.03668850645883603 0.0
0.005364867771972902 -0.02283830719570819 0.0
0.012997641606611671 -0.039434417716982376 0.0
0.009671193085486762 -0.037783557190049555 0.0
0.01405267461343948 -0.03618245860701669 0.0
0.018537172726337533 -0.027636456296989107 0.0
0.012257718424634228 -0.0398534837119133 0.0
0.012735972513247035 -0.006571553091274704 0.0
0.011446355760759877 -0.039063929820145435 0.0
0.012027478007510115 -0.038510285463247404 0.0
0.011452205453970332 -0.02263714402437271 0.0
0.011691440169397596 -0.03255779672738488 0.0
0.011548635741753938 -0.026180916059085776 0.0
0.011783399389172274 -0.034934908053801825 0.0
0.004604729513122021 -0.015876462240661186 0.0
0.013021687142150634 -0.006329248133653013 0.0
0.015374888780350067 -0.0370132715620293 0.0
0.012295306090807638 -0.0398551425495766 0.0
0.011899011361725803 -0.039704479563881644 0.0
0.00973782086631354 -0.008724797975863488 0.0
0.0200033401245068 -0.01855475436258085 0.0
0.01556696140971569 -0.024729219190616332 0.0
0.01559555029596135 -0.02790029333887318 0.0
0.014447026526908173 -0.034008829829669546 0.0
0.009687172943989688 -0.03110521842550356 0.0
0.010052473849210531 -0.03371217020442222 0.0
0.011002772647396521 -0.037835636510013995 0.0
0.005617859801934396 -0.026197564972657107 0.0
0.005076449537242517 -0.022645925821179858 0.0
0.010271413318489082 -0.036435161714697614 0.0
0.00883298266121028 -0.028720722449985477 0.0
0.00923709233174908 -0.03163974292857384 0.0
0.014201795685071995 -0.02445482803463295 0.0
0.013770084931612307 -0.010409331100858336 0.0
0.007269433391845193 -0.006559189151422751 0.0
0.01698752582227203 -0.005633936485001432 0.0
0.012892900824481851 -0.034910010284819534 0.0
0.013243217080909284 -0.02632522603664315 0.0
0.012619306442608658 -0.03844342875150685 0.0
0.013026622274811533 -0.03251376655606234 0.0
0.013326938820548147 -0.02247424756698315 0.0
0.019100938007829065 -0.021746855975169704 0.0
0.00743004118924617 -0.005032609645820763 0.0
0.015599431443129065 -0.030371074579565206 0.0
0.014524102130735756 -0.03563505420771794 0.0
0.01597842755258737 -0.027315661954853455 0.0
0.011583428576708061 -0.029559014726437814 0.0
0.011834666350491291 -0.035106009776189225 0.0
0.011499106243899366 -0.02634733264535599 0.0
0.013370215435331791 -0.039366429749455846 0.0
0.011896900958536604 -0.03705258184313256 0.0
0.00869500793347798 -0.027594296908658455 0.0
0.008353693409942959 -0.024174319564051236 0.0
0.014481883529448906 -0.038337565949671255 0.0
0.012600523199940402 -0.03971189523045091 0.0
0.010353023858747729 -0.01668347373697785 0.0
0.011513546176688668 -0.018410618859167036 0.0
0.011290620708331813 -0.014269863662227758 0.0
0.010888533814089007 -0.0382176091511145 0.0
0.011562873832123913 -0.02248410660927184 0.0
0.006525564118955921 -0.029590425841856942 0.0
0.007255527435902034 -0.032380957715396765 0.0
0.012337072082715733 -0.03973614253449134 0.0
0.018580191570030057 -0.026014052824159525 0.0
0.016262187421764357 -0.03477691354678608 0.0
0.009534422396427827 -0.034764153521287575 0.0
0.00905256439190406 -0.03231727688792076 0.0
0.00791555350975316 -0.01902356625209798 0.0
0.02072795007084104 -0.005159591605744038 0.0
0.004217567737121617 -0.00676257315889894 0.0
0.013032056511080817 -0.014095272156493753 0.0
0.012788834191073432 -0.039025544756586525 0.0
0.01204981589348117 -0.038472451286964096 0.0
0.011794287218875439 -0.038903783492334976 0.0
0.010840548556611268 -0.006523860221250968 0.0
0.011065395293342103 -0.039307368382373045 0.0
0.020305185341626068 -0.014141427291376286 0.0
0.011682669192094992 -0.018454807433695253 0.0
0.016243391973619965 -0.009647947292596533 0.0
0.011237339029454313 -0.03875480531540111 0.0
0.011887126036443735 -0.032492743461692605 0.0
0.012004719733667235 -0.03710783620010081 0.0
0.011793536218547696 -0.0298108107275514 0.0
0.008010486550894398 -0.016977924394913076 0.0
0.008164482150244025 -0.02363950332111902 0.0
0.007865380289614693 -0.019831012660241808 0.0
0.010220027766623214 -0.03642280583066145 0.0
0.009698494746508428 -0.03431915730682126 0.0
0.012470450025561658 -0.0393854521785887 0.0
0.00990922300829214 -0.03829676061547717 0.0
0.01704569935223784 -0.015873564115286135 0.0
0.017185728191153566 -0.022602451270685078 0.0
0.015668534436166646 -0.03254924835651788 0.0
0.011902089227578225 -0.03903494821261215 0.0
0.013763977455618763 -0.03844530859625107 0.0
0.004113519311137462 -0.01859954450361395 0.0
0.007493757626274309 -0.015494394490290707 0.0
0.00786707885077118 -0.013322143830389134 0.0
0.014278516170206186 -0.02035909769428441 0.0
0.013554581047608911 -0.03361010306215059 0.0
0.013790214363064823 -0.0310527488773996 0.0
0.013036672791460218 -0.03773412826813926 0.0
0.015153388197067911 -0.03505029460667499 0.0
0.011188040449200593 -0.0337451651183898 0.0
0.011660804560869747 -0.03784719348424429 0.0
0.011011286738217812 -0.031178702975264854 0.0
0.020201664308006118 -0.008969328701547173 0.0
0.012213391996317212 -0.03946059262661259 0.0
0.01430106165493993 -0.03114255123904645 0.0
0.014447026297948655 -0.028434101673742447 0.0
0.013537394158836357 -0.03631811699490734 0.0
0.013203100183835078 -0.03599357769044226 0.0
0.009052219974535222 -0.03694161657070973 0.0
0.012523316040826902 -0.03976380296145364 0.0
0.01343140025393753 -0.03379116466397071 0.0
0.014002230754260157 -0.024367369416948212 0.0
0.013959551408007575 -0.016435288699503656 0.0
0.016398519661942782 -0.034621702541584955 0.0
0.007617802661889846 -0.009051414811022925 0.0
0.016664394919294303 -0.008569739825703722 0.0
0.01817462030290529 -0.029310455247368 0.0
0.0068279591442356475 -0.014968724871983445 0.0
0.011394124350702011 -0.03934161676806461 0.0
0.016870237246895067 -0.013036478606355276 0.0