<VTKFile type="UnstructuredGrid"  version="0.1">
<UnstructuredGrid>
<Piece NumberOfPoints="713" NumberOfCells="1304">
<Points>
<DataArray type="Float64" NumberOfComponents="3" format="ascii">
0.0 0.0 0.0
10.0 0.0 0.0
10.0 2.0 0.0
5.0 2.0 0.0
0.0 2.0 0.0
0.199999999999856 0.0 0.0
0.3999999999996677 0.0 0.0
0.5999999999994683 0.0 0.0
0.7999999999993286 0.0 0.0
0.9999999999991888 0.0 0.0
1.199999999999033 0.0 0.0
1.399999999998576 0.0 0.0
1.599999999997992 0.0 0.0
1.799999999997408 0.0 0.0
1.999999999996825 0.0 0.0
2.199999999996241 0.0 0.0
2.399999999995657 0.0 0.0
2.599999999995073 0.0 0.0
2.79999999999449 0.0 0.0
2.999999999993906 0.0 0.0
3.199999999993322 0.0 0.0
3.399999999992738 0.0 0.0
3.599999999992154 0.0 0.0
3.799999999991571 0.0 0.0
3.999999999991022 0.0 0.0
4.199999999991187 0.0 0.0
4.399999999991491 0.0 0.0
4.599999999991795 0.0 0.0
4.799999999992099 0.0 0.0
4.999999999992403 0.0 0.0
5.199999999992706 0.0 0.0
5.39999999999301 0.0 0.0
5.599999999993313 0.0 0.0
5.799999999993618 0.0 0.0
5.999999999993922 0.0 0.0
6.199999999994227 0.0 0.0
6.39999999999453 0.0 0.0
6.599999999994833 0.0 0.0
6.799999999995138 0.0 0.0
6.999999999995442 0.0 0.0
7.199999999995747 0.0 0.0
7.39999999999605 0.0 0.0
7.599999999996353 0.0 0.0
7.799999999996658 0.0 0.0
7.999999999996962 0.0 0.0
8.199999999997265 0.0 0.0
8.399999999997569 0.0 0.0
8.599999999997873 0.0 0.0
8.799999999998176 0.0 0.0
8.99999999999848 0.0 0.0
9.199999999998786 0.0 0.0
9.399999999999089 0.0 0.0
9.599999999999392 0.0 0.0
9.799999999999697 0.0 0.0
10.0 0.1999999999996293 0.0
10.0 0.3999999999991157 0.0
10.0 0.5999999999985328 0.0
10.0 0.7999999999979498 0.0
10.0 0.9999999999973885 0.0
10.0 1.199999999997894 0.0
10.0 1.39999999999842 0.0
10.0 1.599999999998947 0.0
10.0 1.799999999999474 0.0
9.799999999999999 2.0 0.0
9.6 2.0 0.0
9.399999999999999 2.0 0.0
9.2 2.0 0.0
8.999999999999998 2.0 0.0
8.799999999999999 2.0 0.0
8.599999999999998 2.0 0.0
8.399999999999999 2.0 0.0
8.2 2.0 0.0
7.999999999999998 2.0 0.0
7.799999999999999 2.0 0.0
7.599999999999999 2.0 0.0
7.399999999999999 2.0 0.0
7.199999999999999 2.0 0.0
7.0 2.0 0.0
6.799999999999999 2.0 0.0
6.6 2.0 0.0
6.399999999999999 2.0 0.0
6.199999999999999 2.0 0.0
5.999999999999999 2.0 0.0
5.8 2.0 0.0
5.6 2.0 0.0
5.399999999999999 2.0 0.0
5.199999999999999 2.0 0.0
4.8 2.0 0.0
4.6 2.0 0.0
4.399999999999999 2.0 0.0
4.199999999999998 2.0 0.0
3.999999999999999 2.0 0.0
3.799999999999999 2.0 0.0
3.599999999999999 2.0 0.0
3.399999999999999 2.0 0.0
3.199999999999998 2.0 0.0
2.999999999999999 2.0 0.0
2.799999999999999 2.0 0.0
2.599999999999999 2.0 0.0
2.399999999999999 2.0 0.0
2.199999999999999 2.0 0.0
2.0 2.0 0.0
1.799999999999999 2.0 0.0
1.599999999999999 2.0 0.0
1.399999999999999 2.0 0.0
1.199999999999999 2.0 0.0
0.9999999999999991 2.0 0.0
0.7999999999999998 2.0 0.0
0.5999999999999996 2.0 0.0
0.3999999999999995 2.0 0.0
0.1999999999999993 2.0 0.0
0.0 1.799999999999167 0.0
0.0 1.6 0.0
0.0 1.400000000001387 0.0
0.0 1.200000000002774 0.0
0.0 1.000000000004117 0.0
0.0 0.8000000000033287 0.0
0.0 0.6000000000024965 0.0
0.0 0.4000000000016644 0.0
0.0 0.200000000000832 0.0
1.499207686858938 0.9671416246672391 0.0
2.690335006295381 0.9619521672166851 0.0
3.892537609238439 1.007271393615351 0.0
8.916602958236062 0.9848120741100651 0.0
7.714518201951718 1.024234589865042 0.0
6.514518201951581 1.024234589865268 0.0
5.299999999999998 1.000000000000349 0.0
0.7620577975594133 1.201991596673393 0.0
4.61755859746166 1.240410629378135 0.0
2.099999999996533 0.6749999999988996 0.0
3.289480163184942 0.6802242156869155 0.0
8.299999999999976 1.325000000000064 0.0
7.110519836808121 1.319775784312006 0.0
5.893184537067197 1.292851873188582 0.0
3.268568008578649 1.341967835735878 0.0
2.118368267083699 1.321829331075689 0.0
5.930896443153832 0.6493414313150682 0.0
7.106926174231782 0.6329785805444448 0.0
8.306926174233002 0.6329785805444098 0.0
4.427960725065653 0.6389803625370323 0.0
0.9828791719046732 0.6520555711814596 0.0
9.383333333333349 0.6166666666667164 0.0
9.383333333333326 1.383333333333367 0.0
4.974443803660211 0.5526668589022862 0.0
1.248084267804327 1.464555585366204 0.0
4.139486343919472 1.468449088519687 0.0
5.077806736162063 1.478342020848787 0.0
1.629462398503482 0.5098631373669138 0.0
2.579462070540726 0.5133714280880515 0.0
3.770778974032556 0.5099482598296803 0.0
8.764748922637567 1.526880805960684 0.0
7.820537929455645 1.486628571911716 0.0
6.632254923791462 1.492045881343967 0.0
2.796478414430566 1.477149214423874 0.0
6.403521585563812 0.5228507855762514 0.0
7.603521585564883 0.5228507855756581 0.0
8.783559188644787 0.5066440811355862 0.0
0.5060338924245764 0.5082251307884346 0.0
5.451633334958382 0.4799315318847731 0.0
1.683269995544083 1.547372422998862 0.0
0.448590368789599 1.551409631210402 0.0
5.545526974704655 1.582008455135239 0.0
3.666056976948354 1.56999765613834 0.0
0.4385739326402744 0.9352922270094057 0.0
9.58170539854767 0.9922137522194456 0.0
4.93200119575972 0.9247090920592975 0.0
6.20679636316332 1.642443126922768 0.0
7.418963044745086 1.587405313446662 0.0
2.98103695524982 0.412594686552066 0.0
2.420975602092416 1.592770352831584 0.0
7.97902439790374 0.4072296471687943 0.0
6.779024397902082 0.4072296471687297 0.0
1.130444757308209 0.9859238872709168 0.0
0.8901814758011342 1.60566856081121 0.0
4.263670373274499 0.9915754392410991 0.0
3.096698167273431 1.009056907826855 0.0
6.088506433998166 0.9857489435828969 0.0
1.902225037409936 1.003483800311746 0.0
7.288506433998439 0.9857489435828686 0.0
8.498964973312972 1.005823551167602 0.0
2.307571737417198 1.008136792450924 0.0
8.100397971125554 1.000138280273345 0.0
6.900397971125225 1.000138280273792 0.0
3.499307350770321 0.9996496628144824 0.0
5.703656022566558 0.9885479657552226 0.0
4.719420624357892 1.622286409566126 0.0
4.099803549896894 0.3600308081356619 0.0
1.286100671532495 0.3637431910670685 0.0
9.120549139677793 1.655065205594329 0.0
9.11726214008418 0.3400668903113251 0.0
4.642568097328033 0.3514924793220939 0.0
9.630437629189052 0.3309104953729904 0.0
9.674493769554315 1.668196579944218 0.0
1.936458797611609 0.3337070483410596 0.0
3.461817573918652 0.3447876019040473 0.0
8.440152788772068 1.649667667046397 0.0
6.973083089482548 1.643748677366674 0.0
3.126874515006838 1.659115470008545 0.0
6.070607878384977 0.3410183041038941 0.0
7.255014454789089 0.32792256737713 0.0
8.462493615948901 0.3368393217476116 0.0
9.236261261261264 0.9276047786917867 0.0
5.885444386845415 1.667751020273455 0.0
0.8062340689595878 0.3261579034781319 0.0
2.29463843780282 0.308358158429197 0.0
8.10536156219338 1.691641841570632 0.0
4.041916759198581 0.7211683801597477 0.0
1.324377365289917 0.710525897087282 0.0
9.023167917315867 1.292262965009952 0.0
2.044244009166302 1.693807225416931 0.0
0.7675765545556328 0.8969765944392112 0.0
2.86965991063896 0.7069213925303978 0.0
6.330340089355722 1.293078607468788 0.0
7.530340089355831 1.29307860746885 0.0
2.509347777214458 1.27231292939881 0.0
7.890652222779963 0.7276870706009825 0.0
6.690652222780154 0.7276870706013264 0.0
4.380959112578968 1.65866292149053 0.0
0.3278422400819535 1.233362752678148 0.0
5.754468991464942 0.3469215055361071 0.0
9.69195804401614 0.7000195364707393 0.0
9.691250997975434 1.303243780084337 0.0
5.54324561063747 1.237401556904767 0.0
9.044596057577811 0.6843248705785732 0.0
5.208929198448351 0.3519433027337513 0.0
3.708880196230617 1.249762029554333 0.0
1.713349558540635 1.234899745098077 0.0
4.586522821995393 0.9261740906803194 0.0
5.241145838821565 0.7007005766013242 0.0
1.434457446926135 1.701926055218157 0.0
0.2821921707428039 0.3393165318407161 0.0
3.42846431357046 1.714274134409306 0.0
5.26283485467567 1.710141275531951 0.0
3.966530105129177 1.718376080180638 0.0
4.891301048299285 1.259923533724591 0.0
0.2787500712946937 0.6906723798523376 0.0
1.822166578929051 0.7301892210727335 0.0
8.593276160688786 1.287322908694633 0.0
2.386017956680413 0.7288816957021155 0.0
3.576911792171353 0.7225526638483954 0.0
8.013982043315597 1.271118304297217 0.0
6.82303669320588 1.277631295759485 0.0
2.891837633696712 1.215141906356511 0.0
8.708162366297856 0.7848580936429009 0.0
7.496736072543097 0.7897651325976158 0.0
6.296736072542775 0.7897651325982009 0.0
5.523181420933933 0.7588744249744506 0.0
4.725538117155759 0.6529070682798582 0.0
2.736307197014292 0.273961667653487 0.0
7.663692802980817 1.726038332346062 0.0
6.446842959287713 1.783714797320288 0.0
1.126188383272983 1.743715177525389 0.0
2.64757240694847 1.787239829472812 0.0
6.546646507559373 0.2589894635657943 0.0
7.746646507561152 0.2589894635657218 0.0
4.079302268890254 1.221431431691139 0.0
4.433746883463333 0.2983726043497702 0.0
1.032697650548726 1.318076986199429 0.0
1.309492735411376 1.208980965369829 0.0
3.896105387998365 0.2579746081881307 0.0
9.378751775005455 1.725996478164223 0.0
9.3965279828929 0.2649862374471925 0.0
1.515757555362918 0.2603060454608533 0.0
4.959097093232828 1.726144293543605 0.0
4.912501341257775 0.2529154558175828 0.0
4.342421824442713 1.285376618065631 0.0
7.023506283123107 0.293611963231815 0.0
8.215829626877609 0.2682061590942965 0.0
5.28145265730745 1.291130016052329 0.0
8.693992162747364 1.744100892812201 0.0
0.6256567126095668 1.775064851453201 0.0
0.2724967459749605 1.756941612685287 0.0
8.90781713264278 0.2741674349222226 0.0
7.184202236567151 1.709454269177068 0.0
3.212962614055919 0.2641656831057426 0.0
0.6761590188374282 0.6746441670621973 0.0
1.020489328989316 0.2487299689497893 0.0
1.485017749467193 1.402133856149482 0.0
6.734223224917944 1.790518105434539 0.0
2.657549589911705 0.7636227781082678 0.0
6.542590471647475 1.237213715285722 0.0
7.742745187066703 1.235538225115726 0.0
0.5794341726414672 0.2480285055479751 0.0
1.842901067642841 1.760146518280044 0.0
3.84389577648662 0.7524680119172447 0.0
3.061589173628368 1.407936939342627 0.0
6.144447294584154 0.5911674363009913 0.0
7.344447294585433 0.5911674362995804 0.0
8.544447294586682 0.5911674362982269 0.0
5.491507940982565 0.1734458797927824 0.0
[...]
<PointData Vectors="fields">
<DataArray type="Float64" Name="U" NumberOfComponents="3" format="ascii">
0.0 0.0 0.0
0.030030506757717648 0.0 0.0
0.0025925913803569447 -0.005453193175615401 0.0
0.014926248017353106 -0.04806364217255685 0.0
0.02733417959091501 -0.005090340989046228 0.0
0.0003004013684346522 -0.0056476728621521165 0.0
0.000908263054960495 -0.009304224487535982 0.0
0.0014572837056775513 -0.01254235313219579 0.0
0.0019205586252110868 -0.01539650010257742 0.0
0.0023282721339821255 -0.018121611522164505 0.0
0.00272255931413406 -0.02074097568058274 0.0
0.0031191762091619447 -0.02326338650628074 0.0
0.003553342122389502 -0.025701558156098692 0.0
0.004000057195747343 -0.028056565551013025 0.0
0.00448010109095039 -0.030303904796867186 0.0
0.004981995779021376 -0.032443681362935545 0.0
0.005527854386414784 -0.03447741432803882 0.0
0.006083967468530383 -0.03638963272779374 0.0
0.006699071486669707 -0.03818009641603611 0.0
0.007317655231791031 -0.0398416112221454 0.0
0.007993534199077232 -0.04136675008299704 0.0
0.008682653021205631 -0.04274233291455215 0.0
0.009417308216924429 -0.04397597103534206 0.0
0.010170918438738156 -0.04502652617973036 0.0
0.010941358694957715 -0.04596797855745454 0.0
0.011754805039440026 -0.04672517247417729 0.0
0.012566904466630523 -0.047309102623161264 0.0
0.013403441239749235 -0.04773085741154629 0.0
0.014221251293921528 -0.04797210191952826 0.0
0.01506152608136393 -0.048050231104740514 0.0
0.015867274379535057 -0.047957964609203 0.0
0.016659908810074054 -0.04769290342381337 0.0
0.017437783159859804 -0.04726466567789944 0.0
0.01819675844428574 -0.04666914570996107 0.0
0.018928282876883286 -0.04592011099389906 0.0
0.01967078071313016 -0.04502385801199162 0.0
0.020370355390309566 -0.04393282543119937 0.0
0.021071675013600716 -0.042741274109058834 0.0
0.021741055216497263 -0.04139859851066685 0.0
0.02240848425319428 -0.03989201092571506 0.0
0.02303678549359511 -0.038252797803802495 0.0
0.023640665740015398 -0.036488465330010864 0.0
0.02419904707300425 -0.03457079996702076 0.0
0.024744222768182632 -0.0325776766256966 0.0
0.0252471217767102 -0.030466353899457836 0.0
0.025731673560418767 -0.028239330914758963 0.0
0.026178220025253537 -0.025905552446600734 0.0
0.026607084123750138 -0.023488860561227586 0.0
0.027000218951522156 -0.020980225903039683 0.0
0.027402776078078672 -0.01837539084035337 0.0
0.027797820880041957 -0.01567659189755079 0.0
0.028236446632842693 -0.012827202890202553 0.0
0.02872257093368456 -0.009738161884495783 0.0
0.029470835721835516 -0.006067148117719617 0.0
0.025410623902173513 -0.0021394831521733644 0.0
0.022406038026037953 -0.0033186469142959273 0.0
0.019678477368869338 -0.004069061644823586 0.0
0.017172270218383773 -0.004637026584070808 0.0
0.01474159649117984 -0.004995841747333762 0.0
0.012355958872640205 -0.005231318652842744 0.0
0.00997359832204707 -0.005374661788324145 0.0
0.007556043710033362 -0.005439408546672891 0.0
0.005094721997476688 -0.005452990633793837 0.0
0.0025907500850420482 -0.00796484360968221 0.0
0.0025981505257263587 -0.010509771569677097 0.0
0.0026466909664608095 -0.0130948708958931 0.0
0.002757886537033506 -0.015706876920008765 0.0
0.0029407083613248383 -0.018308046280661783 0.0
0.0031866992080233714 -0.02086402596659618 0.0
0.0034987566034596256 -0.02338502553984465 0.0
0.0038610711584848574 -0.025816507873920216 0.0
0.004274408346660831 -0.028158577321428735 0.0
0.004743619061403673 -0.030407977275015576 0.0
0.00523373536435921 -0.03254264742449742 0.0
0.005785637991872069 -0.034567007253246546 0.0
0.006346313964302977 -0.0364691035019296 0.0
0.006962662048200495 -0.038242587933088004 0.0
0.007599721084420032 -0.03988780298799091 0.0
0.00826341150258702 -0.04139262596309651 0.0
0.008931826112683635 -0.0427215457491233 0.0
0.009635946646665054 -0.04396559430716593 0.0
0.010354197810177188 -0.04502031157523134 0.0
0.011067842408284446 -0.04592706177951873 0.0
0.011814724330598972 -0.04668607916664372 0.0
0.012589210695143037 -0.047277145135659795 0.0
0.013342214567319597 -0.0477042604005791 0.0
0.014136662258609125 -0.04797000182215212 0.0
0.015739435347531257 -0.0479742972516444 0.0
0.016519618187369058 -0.04773040524775147 0.0
0.017293465520536427 -0.04731854648548068 0.0
0.01808289522263849 -0.04674623931673466 0.0
0.018859406065032853 -0.04598335177968229 0.0
0.019626074372910633 -0.04505976877804076 0.0
0.020335958872531684 -0.04398545378761521 0.0
0.02104680530515648 -0.042753670843877926 0.0
0.021727345536677132 -0.04137951728214442 0.0
0.02239260366597423 -0.03985630647621759 0.0
0.023009020431408143 -0.03816359958543315 0.0
0.023616386097366604 -0.03639248794041062 0.0
0.024178130419594938 -0.0344639689820945 0.0
0.024705305451494387 -0.032416262505582064 0.0
0.02521507930563516 -0.030254508821939665 0.0
0.02567790786410291 -0.027984161062237257 0.0
0.02608454045425742 -0.02562123878467222 0.0
0.026459358715128632 -0.023160258362996407 0.0
0.026763933018818305 -0.020628896925275027 0.0
0.027007607233991975 -0.0180356011772447 0.0
0.027176637546715694 -0.015418353209234353 0.0
0.027277293905624715 -0.01278892426010876 0.0
0.02732656055352488 -0.01018755782244442 0.0
0.027338022590179877 -0.007619496201101381 0.0
0.02481112552355885 -0.005091673928792492 0.0
0.02232698362685584 -0.005079390642518137 0.0
0.019889941137533357 -0.00502149256334349 0.0
0.017479556504901784 -0.004887701637798326 0.0
0.015077537901310554 -0.00464027712385731 0.0
0.012630060982574139 -0.004289305806977289 0.0
0.01010595326290657 -0.0037290387500798082 0.0
0.00738240100389766 -0.0029558678775533924 0.0
0.004159016235201701 -0.0016690761995704244 0.0
0.014535471469535781 -0.024602788393094033 0.0
0.014545341534205733 -0.03747757270936579 0.0
0.01492807946366901 -0.04584096014828526 0.0
0.015026459818283508 -0.01952004584109082 0.0
0.01476363837667019 -0.03367521561537856 0.0
0.014863267102869296 -0.043596763337163835 0.0
0.014976483945532863 -0.0482003019374917 0.0
0.017448675796305466 -0.014931713308393445 0.0
0.015294154509312492 -0.04810071453251322 0.0
0.011656953064339986 -0.03157719051503036 0.0
0.012821974482476794 -0.04227694461149204 0.0
0.011515644926298585 -0.027179278904957745 0.0
0.01258278415433418 -0.03924596025732617 0.0
0.013986130791909785 -0.04665673746682356 0.0
0.017088585496640166 -0.042134378266992095 0.0
0.018004124373652754 -0.03175192850695877 0.0
0.016257406455978486 -0.0464966315146353 0.0
0.017769578147997362 -0.03927991770555025 0.0
0.01888006901162307 -0.027157308609847046 0.0
0.014143564318541336 -0.047704490389024745 0.0
0.010811922069959476 -0.017946793472900385 0.0
0.019429660239537277 -0.013126799180534911 0.0
0.010220850113113852 -0.013297489995539263 0.0
0.014957825873488852 -0.04833656361772618 0.0
0.020254380805873187 -0.021350937864230077 0.0
0.016486501596931217 -0.04679096084135327 0.0
0.014790368694420528 -0.04830929470559581 0.0
0.009501533162951544 -0.026186162996403896 0.0
0.010652042616018553 -0.03639338727840493 0.0
0.012566818876655086 -0.04515776690125571 0.0
0.00890304055639277 -0.021418446319984755 0.0
0.010329222381624767 -0.03250464489118263 0.0
0.01202545660484085 -0.0427680635869023 0.0
0.01866612612639965 -0.03836008413397243 0.0
0.017517617786649183 -0.04417447189758994 0.0
0.01929129953649501 -0.03474123820465339 0.0
0.020657395614500376 -0.021283630310470418 0.0
0.008931508930092492 -0.011165184137861788 0.0
0.015947971315558016 -0.04785371462920508 0.0
0.020779321172818284 -0.026745564003943588 0.0
0.021705847991443955 -0.010794056291531446 0.0
0.013726860256524174 -0.047638883468143885 0.0
0.01781495680172072 -0.04457613099454511 0.0
0.01434359582201018 -0.010396495362920494 0.0
0.01478622430925255 -0.010468581078878486 0.0
0.014946668653814995 -0.04841965191136974 0.0
0.012048916182539856 -0.04517527147387932 0.0
0.009992798065629353 -0.03646286649329517 0.0
0.010485323434715175 -0.039876519409133386 0.0
0.020234515227164417 -0.0348362577448395 0.0
0.02092051893731339 -0.030827797831253865 0.0
0.01888730313714848 -0.04173288089358295 0.0
0.014801887415994284 -0.019884101109443296 0.0
0.02217588449021338 -0.016643390515545198 0.0
0.014899006582188441 -0.047294328319423054 0.0
0.014933402380397991 -0.040889692585851234 0.0
0.0150571613940277 -0.04586864978951131 0.0
0.014904231535848753 -0.029391700397480992 0.0
0.015111710281529156 -0.03774620223797496 0.0
0.014866501707316019 -0.02483412277929238 0.0
0.01493380280584736 -0.03377974283113001 0.0
0.01496761993310014 -0.029527041329108036 0.0
0.014995891944979857 -0.04094644798053344 0.0
0.014878437834787681 -0.04370384536847597 0.0
0.015014684199975497 -0.047320246212528706 0.0
0.015615728182679861 -0.048134214980013516 0.0
0.012668567176377762 -0.04658816855873171 0.0
0.0074354499384416475 -0.021935711683866606 0.0
0.00711418706049566 -0.01678341050444372 0.0
0.023008474267735227 -0.01687482271096833 0.0
0.01407928523178632 -0.04801886181740391 0.0
0.023294800940814847 -0.009301005528809459 0.0
0.006735795698622468 -0.00954007818505023 0.0
0.00795643680813986 -0.029722346089313737 0.0
0.011023003696801304 -0.04333854412222702 0.0
0.00783987475755628 -0.02543707914672629 0.0
0.010368519384248851 -0.04027091733338505 0.0
0.019472750373853473 -0.041004383448363615 0.0
0.017724828899411578 -0.04581135970867761 0.0
0.020421940455463798 -0.03793268353610319 0.0
0.02234677039700108 -0.025267604877075737 0.0
0.015623662679004691 -0.015224487296789706 0.0
0.012701887841511446 -0.046571048261314786 0.0
0.006507012225272065 -0.015546170077853033 0.0
0.008302522460226669 -0.03354812492376531 0.0
0.007852575777963087 -0.029346924188657655 0.0
0.013875088892273832 -0.04647435518271164 0.0
0.011600551393349872 -0.022428139915346923 0.0
0.011436823544778 -0.018091453940109064 0.0
0.02184886700665775 -0.030865246507424962 0.0
0.013823387864625834 -0.014985710863550019 0.0
0.012594247926081208 -0.03903613669088495 0.0
0.013540606264270857 -0.044646598280807026 0.0
0.012425282772044764 -0.03548381356575993 0.0
0.017243400003256335 -0.03576016954461367 0.0
0.01762870926723126 -0.031830600467172315 0.0
0.016695293120025257 -0.04243323423748826 0.0
0.01652404229057751 -0.04748105013635887 0.0
0.01791096400745881 -0.0090801538030394 0.0
0.01694498699112696 -0.04701345815184333 0.0
0.01832279304610033 -0.008655786593342527 0.0
0.011108189749004599 -0.009202828256639466 0.0
0.01447339357957602 -0.0477327638453172 0.0
0.018585734193515464 -0.017842016137507223 0.0
0.015571276669889519 -0.0481623686935023 0.0
0.0161253146335488 -0.044901206569219566 0.0
0.017383079027832427 -0.02716812504759873 0.0
0.014830254374867182 -0.04806870779002023 0.0
0.015282029377442163 -0.04824894247677496 0.0
0.022823253537328735 -0.023674007540274936 0.0
0.006590123534087759 -0.007485255279678238 0.0
0.01915807779154637 -0.043092271337653094 0.0
0.014211920877784268 -0.04808454728725094 0.0
0.01779830780109036 -0.046018828484793245 0.0
0.015052913838720108 -0.04836465978240842 0.0
0.011346519096601042 -0.007899716252389534 0.0
0.012040119795065378 -0.028471080549126945 0.0
0.011730737197349636 -0.02362192193063093 0.0
0.012392238765765024 -0.03455757837416951 0.0
0.013385823965778688 -0.044145219699410286 0.0
0.012277629888338037 -0.030459012086458955 0.0
0.013161823241274835 -0.0414935838885357 0.0
0.01650939700890558 -0.03922326296022683 0.0
0.017349844928273808 -0.022238157877209903 0.0
0.016816363653820738 -0.035813711285520695 0.0
0.016025904217768235 -0.04482074051416316 0.0
0.01549019035982906 -0.047774763744757795 0.0
0.014600465554700974 -0.048228034838519285 0.0
0.008870639030961441 -0.037752721573977244 0.0
0.008279835682824229 -0.03405091532709187 0.0
0.010717099119720554 -0.04380369115413173 0.0
0.023665514877180955 -0.019729922010827083 0.0
0.02156019419991323 -0.03692380312987843 0.0
0.019313524959007445 -0.043222450232064946 0.0
0.02202421328211629 -0.03323470992644797 0.0
0.015699059975015035 -0.046621241959289725 0.0
0.013394704457532087 -0.04758223185107703 0.0
0.01869288496473894 -0.018555778180759323 0.0
0.017300602597009475 -0.022177270567367062 0.0
0.011696729605243893 -0.045672830232094515 0.0
0.0061032441240358795 -0.013383676955807326 0.0
0.024256580425380037 -0.01292748401050018 0.0
0.006485926701834278 -0.024779474264949333 0.0
0.015048946097876067 -0.04823578081255491 0.0
0.014772534158515446 -0.04820133191707685 0.0
0.015653051150282666 -0.047490214019900306 0.0
0.0202055352828623 -0.039849622126616496 0.0
0.02275854401205715 -0.028149437495297438 0.0
0.014637657082721117 -0.04819589755026982 0.0
0.006444463090793516 -0.022273680149325504 0.0
0.02440155485016629 -0.013139478581216158 0.0
0.02426348009006693 -0.008536492693404917 0.0
0.023666354939418825 -0.01966365031292755 0.0
0.009413752549614855 -0.038514937431777516 0.0
0.009905293183026033 -0.04159977673249145 0.0
0.011094502710058166 -0.013689206307743198 0.0
0.0056708906364735905 -0.018458178076340308 0.0
0.01936068281623476 -0.024356945945073046 0.0
0.009896417822983198 -0.04195428681002397 0.0
0.01287717110657013 -0.03716480269319339 0.0
0.013642482737861825 -0.043404159424121895 0.0
0.012788902710816407 -0.033363074001849305 0.0
0.005247658965483935 -0.01225025490877448 0.0
0.022894010516410497 -0.02856489864426607 0.0
0.013792019153429522 -0.04558275143867167 0.0
0.017778160459022783 -0.040568282374809174 0.0
0.016778220655079907 -0.04554604187113053 0.0
0.018368264939195945 -0.03720039424544699 0.0
0.019499045851810993 -0.024288822374402483 0.0
0.016652743043311054 -0.04763065530517042 0.0
0.012431008100522738 -0.0253977652171142 0.0
0.020709974854569338 -0.039433685135394296 0.0
0.021651258039749714 -0.03611427719867377 0.0
0.018675012871488348 -0.044879948591758145 0.0
0.02058190515316339 -0.013845017139740025 0.0
0.01256104884469781 -0.013263817087779944 0.0
0.01298617098274097 -0.04716728173452698 0.0
0.01666817121569159 -0.04569576737538596 0.0
0.00775679273910688 -0.03562484987623343 0.0
0.007153610487943427 -0.03166191530844654 0.0
0.016343757626031356 -0.04713488484743108 0.0
0.012234365074358735 -0.021303223269693264 0.0
0.020117732565420324 -0.02994134052514843 0.0
0.016977242637973955 -0.012003287979354382 0.0
0.01740409111007511 -0.0468400976188877 0.0
0.021006659629624877 -0.007055299937733985 0.0
0.010886439672632586 -0.044451367353958285 0.0
0.006431822223451879 -0.02753437377592471 0.0
0.01583853531542462 -0.047887411588886555 0.0
0.011725849955802 -0.045741676138476774 0.0
0.01708656284782021 -0.04382514389035029 0.0
0.022456485425968623 -0.0333649179023456 0.0
0.01493908227930402 -0.0483903971544716 0.0
0.015364597713035898 -0.007874097729349872 0.0
0.013927554723225143 -0.047357460321646734 0.0
0.014677698118406877 -0.046648970012848984 0.0
0.013962612255967096 -0.027211075417592673 0.0
0.014267694363971349 -0.039258913878789305 0.0
0.0139402150888929 -0.031588230884465995 0.0
0.014247733740719273 -0.04227586958478403 0.0
0.005697064551537355 -0.019076466911646807 0.0
0.015853780303329585 -0.0075779979508442 0.0
0.01875118615593433 -0.0448649635630352 0.0
0.015007238292204846 -0.04839431615292488 0.0
0.014475154468006464 -0.048191199594847085 0.0
0.011735793012343211 -0.01047750741926296 0.0
0.024290862845208542 -0.022296099752546802 0.0
0.018970129348778578 -0.029735709770020404 0.0
0.01887546692268139 -0.0336814912979924 0.0
0.0176842479960768 -0.0410442169187787 0.0
0.011807086977408161 -0.037480432502718035 0.0
0.012100823686006859 -0.040768981376927936 0.0
0.013394007549605453 -0.04580075082149995 0.0
0.006722673606867188 -0.031607381392430384 0.0
0.006247757784609009 -0.02722604398003435 0.0
0.012499184474285389 -0.044050411475466726 0.0
0.010771936233181376 -0.034573959485348464 0.0
0.011106323647522202 -0.03822961024527516 0.0
0.0171634045952971 -0.029496933750228847 0.0
0.016759078497705096 -0.012496283643176783 0.0
0.008909740656096515 -0.007849744956911908 0.0
0.020639468922624155 -0.00675062590459004 0.0
0.01562540795624824 -0.04224673099200812 0.0
0.016002969583554946 -0.0317650512027519 0.0
0.01543213221594928 -0.04656290472331873 0.0
0.015914825773236708 -0.0392045508361864 0.0
0.016237559880560696 -0.02701397129056094 0.0
0.023103366206527837 -0.026218129069469714 0.0
0.008944960212833673 -0.006028513940907282 0.0
0.01890078662825632 -0.03668978016681763 0.0
0.01780021583926681 -0.04305426085289026 0.0
0.01949446719640535 -0.032867083151824315 0.0
0.013986961312200192 -0.03569325851700709 0.0
0.014447101254710982 -0.04239846297748927 0.0
0.014023735115125039 -0.03169217473485509 0.0
0.016303068393417126 -0.04780024949263909 0.0
0.014405403519712328 -0.04490404959324994 0.0
0.01046256712190953 -0.0333021944874081 0.0
0.010204114367855618 -0.02906718362386156 0.0
0.017809854801941853 -0.04643306545662077 0.0
0.0153461538123106 -0.04823114181326574 0.0
0.012483810194339605 -0.02008670356356644 0.0
0.013890934445991201 -0.02217565365252853 0.0
0.013764224973632675 -0.017142889013082942 0.0
0.01315356973314519 -0.04636254738466015 0.0
0.013953839748917918 -0.027106522673680022 0.0
0.007955248864110002 -0.035635241377572624 0.0
0.008661338383634637 -0.03913870984285217 0.0
0.01502143526018049 -0.04826380987658284 0.0
0.02264478791744316 -0.03129446937783887 0.0
0.019947716019744488 -0.04199591666802528 0.0
0.011452763975370704 -0.04206571505758522 0.0
0.01102436848708974 -0.03896581406284623 0.0
0.009530966323564437 -0.02291613274047756 0.0
0.025139172007996508 -0.006186655356987309 0.0
0.005230826565842393 -0.00809546194379251 0.0
0.01572729544759645 -0.01695968571845156 0.0
0.015653222706472097 -0.047302843916030846 0.0
0.0146199112939823 -0.04668381904771171 0.0
0.014308932164586147 -0.04722593930365178 0.0
0.013219192513502183 -0.0078088668494159744 0.0
0.013428216241734368 -0.04767821576772949 0.0
0.024538445706061403 -0.01701700678189075 0.0
0.014239104444281538 -0.02217635360604826 0.0
0.019614040138965807 -0.011587335918239483 0.0
0.013606035420132716 -0.04703745109571708 0.0
0.014366279445467044 -0.039274032090975124 0.0
0.01465717000118567 -0.04488561730286341 0.0
0.014389009557867764 -0.03589872133836993 0.0
0.009647213402469917 -0.02044207521901591 0.0
0.009827488432348621 -0.02850480112637302 0.0
0.00962295473709647 -0.023833928379193056 0.0
0.012300261575783834 -0.044120315481616754 0.0
0.011807383249888276 -0.041428466701314295 0.0
0.015174512115148139 -0.04782969581700209 0.0
0.011937087192721029 -0.04645677220259082 0.0
0.020593931527594915 -0.019109756535655213 0.0
0.020917642199442196 -0.027170239657006993 0.0
0.019177691783965105 -0.03925080266752964 0.0
0.014510129813284162 -0.047317629329818665 0.0
0.01689642212342164 -0.046566498383065855 0.0
0.004928207551940254 -0.022403441267145073 0.0
0.009179147397302497 -0.018616562245826765 0.0
0.009630198998408087 -0.016001906739252753 0.0
0.01738457618520678 -0.02446621130914516 0.0
0.01642866638369877 -0.04064760250001408 0.0
0.016847033742269115 -0.037414958355240856 0.0
0.015958312138627674 -0.04566896663596773 0.0
0.018426257334585756 -0.04242727627257623 0.0
0.013506157209405978 -0.04080954504911647 0.0
0.014220624866292197 -0.04581304814954434 0.0
0.013430619182147547 -0.03756927670754157 0.0
0.02440659558010661 -0.01076591022096183 0.0
0.01490287045372757 -0.047864627746578965 0.0
0.017320090816241848 -0.037628229834624806 0.0
0.017633340894323425 -0.03422355926138738 0.0
0.0165750545812901 -0.043901258665150995 0.0
0.01602550973189332 -0.04358813797065915 0.0
0.010973572071500338 -0.044687002445420676 0.0
0.015329415015140345 -0.04826583486686027 0.0
0.0164229084293846 -0.04077517579925296 0.0
0.01706502620825036 -0.029297652099489792 0.0
0.016990901036339778 -0.019746512951766503 0.0
0.019952432983177518 -0.04190372158746428 0.0
0.009329813726143419 -0.010855427341792442 0.0
0.020250204605418005 -0.010283431979938881 0.0
0.022032934216100385 -0.035402372092313 0.0
0.008217535624150951 -0.018013842821458452 0.0
0.01384132389964183 -0.047769250363557225 0.0
0.020499643506099525 -0.015657317155221707 0.0
0.019798300914087696 -0.01601703231201191 0.0
0.01574022488388787 -0.0458542040495747 0.0