<VTKFile type="UnstructuredGrid"  version="0.1">
<UnstructuredGrid>
<Piece NumberOfPoints="713" NumberOfCells="1304">
<Points>
<DataArray type="Float64" NumberOfComponents="3" format="ascii">
0.0 0.0 0.0
10.0 0.0 0.0
10.0 2.0 0.0
5.0 2.0 0.0
0.0 2.0 0.0
0.199999999999856 0.0 0.0
0.3999999999996677 0.0 0.0
0.5999999999994683 0.0 0.0
0.7999999999993286 0.0 0.0
0.9999999999991888 0.0 0.0
1.199999999999033 0.0 0.0
1.399999999998576 0.0 0.0
1.599999999997992 0.0 0.0
1.799999999997408 0.0 0.0
1.999999999996825 0.0 0.0
2.199999999996241 0.0 0.0
2.399999999995657 0.0 0.0
2.599999999995073 0.0 0.0
2.79999999999449 0.0 0.0
2.999999999993906 0.0 0.0
3.199999999993322 0.0 0.0
3.399999999992738 0.0 0.0
3.599999999992154 0.0 0.0
3.799999999991571 0.0 0.0
3.999999999991022 0.0 0.0
4.199999999991187 0.0 0.0
4.399999999991491 0.0 0.0
4.599999999991795 0.0 0.0
4.799999999992099 0.0 0.0
4.999999999992403 0.0 0.0
5.199999999992706 0.0 0.0
5.39999999999301 0.0 0.0
5.599999999993313 0.0 0.0
5.799999999993618 0.0 0.0
5.999999999993922 0.0 0.0
6.199999999994227 0.0 0.0
6.39999999999453 0.0 0.0
6.599999999994833 0.0 0.0
6.799999999995138 0.0 0.0
6.999999999995442 0.0 0.0
7.199999999995747 0.0 0.0
7.39999999999605 0.0 0.0
7.599999999996353 0.0 0.0
7.799999999996658 0.0 0.0
7.999999999996962 0.0 0.0
8.199999999997265 0.0 0.0
8.399999999997569 0.0 0.0
8.599999999997873 0.0 0.0
8.799999999998176 0.0 0.0
8.99999999999848 0.0 0.0
9.199999999998786 0.0 0.0
9.399999999999089 0.0 0.0
9.599999999999392 0.0 0.0
9.799999999999697 0.0 0.0
10.0 0.1999999999996293 0.0
10.0 0.3999999999991157 0.0
10.0 0.5999999999985328 0.0
10.0 0.7999999999979498 0.0
10.0 0.9999999999973885 0.0
10.0 1.199999999997894 0.0
10.0 1.39999999999842 0.0
10.0 1.599999999998947 0.0
10.0 1.799999999999474 0.0
9.799999999999999 2.0 0.0
9.6 2.0 0.0
9.399999999999999 2.0 0.0
9.2 2.0 0.0
8.999999999999998 2.0 0.0
8.799999999999999 2.0 0.0
8.599999999999998 2.0 0.0
8.399999999999999 2.0 0.0
8.2 2.0 0.0
7.999999999999998 2.0 0.0
7.799999999999999 2.0 0.0
7.599999999999999 2.0 0.0
7.399999999999999 2.0 0.0
7.199999999999999 2.0 0.0
7.0 2.0 0.0
6.799999999999999 2.0 0.0
6.6 2.0 0.0
6.399999999999999 2.0 0.0
6.199999999999999 2.0 0.0
5.999999999999999 2.0 0.0
5.8 2.0 0.0
5.6 2.0 0.0
5.399999999999999 2.0 0.0
5.199999999999999 2.0 0.0
4.8 2.0 0.0
4.6 2.0 0.0
4.399999999999999 2.0 0.0
4.199999999999998 2.0 0.0
3.999999999999999 2.0 0.0
3.799999999999999 2.0 0.0
3.599999999999999 2.0 0.0
3.399999999999999 2.0 0.0
3.199999999999998 2.0 0.0
2.999999999999999 2.0 0.0
2.799999999999999 2.0 0.0
2.599999999999999 2.0 0.0
2.399999999999999 2.0 0.0
2.199999999999999 2.0 0.0
2.0 2.0 0.0
1.799999999999999 2.0 0.0
1.599999999999999 2.0 0.0
1.399999999999999 2.0 0.0
1.199999999999999 2.0 0.0
0.9999999999999991 2.0 0.0
0.7999999999999998 2.0 0.0
0.5999999999999996 2.0 0.0
0.3999999999999995 2.0 0.0
0.1999999999999993 2.0 0.0
0.0 1.799999999999167 0.0
0.0 1.6 0.0
0.0 1.400000000001387 0.0
0.0 1.200000000002774 0.0
0.0 1.000000000004117 0.0
0.0 0.8000000000033287 0.0
0.0 0.6000000000024965 0.0
0.0 0.4000000000016644 0.0
0.0 0.200000000000832 0.0
1.499207686858938 0.9671416246672391 0.0
2.690335006295381 0.9619521672166851 0.0
3.892537609238439 1.007271393615351 0.0
8.916602958236062 0.9848120741100651 0.0
7.714518201951718 1.024234589865042 0.0
6.514518201951581 1.024234589865268 0.0
5.299999999999998 1.000000000000349 0.0
0.7620577975594133 1.201991596673393 0.0
4.61755859746166 1.240410629378135 0.0
2.099999999996533 0.6749999999988996 0.0
3.289480163184942 0.6802242156869155 0.0
8.299999999999976 1.325000000000064 0.0
7.110519836808121 1.319775784312006 0.0
5.893184537067197 1.292851873188582 0.0
3.268568008578649 1.341967835735878 0.0
2.118368267083699 1.321829331075689 0.0
5.930896443153832 0.6493414313150682 0.0
7.106926174231782 0.6329785805444448 0.0
8.306926174233002 0.6329785805444098 0.0
4.427960725065653 0.6389803625370323 0.0
0.9828791719046732 0.6520555711814596 0.0
9.383333333333349 0.6166666666667164 0.0
9.383333333333326 1.383333333333367 0.0
4.974443803660211 0.5526668589022862 0.0
1.248084267804327 1.464555585366204 0.0
4.139486343919472 1.468449088519687 0.0
5.077806736162063 1.478342020848787 0.0
1.629462398503482 0.5098631373669138 0.0
2.579462070540726 0.5133714280880515 0.0
3.770778974032556 0.5099482598296803 0.0
8.764748922637567 1.526880805960684 0.0
7.820537929455645 1.486628571911716 0.0
6.632254923791462 1.492045881343967 0.0
2.796478414430566 1.477149214423874 0.0
6.403521585563812 0.5228507855762514 0.0
7.603521585564883 0.5228507855756581 0.0
8.783559188644787 0.5066440811355862 0.0
0.5060338924245764 0.5082251307884346 0.0
5.451633334958382 0.4799315318847731 0.0
1.683269995544083 1.547372422998862 0.0
0.448590368789599 1.551409631210402 0.0
5.545526974704655 1.582008455135239 0.0
3.666056976948354 1.56999765613834 0.0
0.4385739326402744 0.9352922270094057 0.0
9.58170539854767 0.9922137522194456 0.0
4.93200119575972 0.9247090920592975 0.0
6.20679636316332 1.642443126922768 0.0
7.418963044745086 1.587405313446662 0.0
2.98103695524982 0.412594686552066 0.0
2.420975602092416 1.592770352831584 0.0
7.97902439790374 0.4072296471687943 0.0
6.779024397902082 0.4072296471687297 0.0
1.130444757308209 0.9859238872709168 0.0
0.8901814758011342 1.60566856081121 0.0
4.263670373274499 0.9915754392410991 0.0
3.096698167273431 1.009056907826855 0.0
6.088506433998166 0.9857489435828969 0.0
1.902225037409936 1.003483800311746 0.0
7.288506433998439 0.9857489435828686 0.0
8.498964973312972 1.005823551167602 0.0
2.307571737417198 1.008136792450924 0.0
8.100397971125554 1.000138280273345 0.0
6.900397971125225 1.000138280273792 0.0
3.499307350770321 0.9996496628144824 0.0
5.703656022566558 0.9885479657552226 0.0
4.719420624357892 1.622286409566126 0.0
4.099803549896894 0.3600308081356619 0.0
1.286100671532495 0.3637431910670685 0.0
9.120549139677793 1.655065205594329 0.0
9.11726214008418 0.3400668903113251 0.0
4.642568097328033 0.3514924793220939 0.0
9.630437629189052 0.3309104953729904 0.0
9.674493769554315 1.668196579944218 0.0
1.936458797611609 0.3337070483410596 0.0
3.461817573918652 0.3447876019040473 0.0
8.440152788772068 1.649667667046397 0.0
6.973083089482548 1.643748677366674 0.0
3.126874515006838 1.659115470008545 0.0
6.070607878384977 0.3410183041038941 0.0
7.255014454789089 0.32792256737713 0.0
8.462493615948901 0.3368393217476116 0.0
9.236261261261264 0.9276047786917867 0.0
5.885444386845415 1.667751020273455 0.0
0.8062340689595878 0.3261579034781319 0.0
2.29463843780282 0.308358158429197 0.0
8.10536156219338 1.691641841570632 0.0
4.041916759198581 0.7211683801597477 0.0
1.324377365289917 0.710525897087282 0.0
9.023167917315867 1.292262965009952 0.0
2.044244009166302 1.693807225416931 0.0
0.7675765545556328 0.8969765944392112 0.0
2.86965991063896 0.7069213925303978 0.0
6.330340089355722 1.293078607468788 0.0
7.530340089355831 1.29307860746885 0.0
2.509347777214458 1.27231292939881 0.0
7.890652222779963 0.7276870706009825 0.0
6.690652222780154 0.7276870706013264 0.0
4.380959112578968 1.65866292149053 0.0
0.3278422400819535 1.233362752678148 0.0
5.754468991464942 0.3469215055361071 0.0
9.69195804401614 0.7000195364707393 0.0
9.691250997975434 1.303243780084337 0.0
5.54324561063747 1.237401556904767 0.0
9.044596057577811 0.6843248705785732 0.0
5.208929198448351 0.3519433027337513 0.0
3.708880196230617 1.249762029554333 0.0
1.713349558540635 1.234899745098077 0.0
4.586522821995393 0.9261740906803194 0.0
5.241145838821565 0.7007005766013242 0.0
1.434457446926135 1.701926055218157 0.0
0.2821921707428039 0.3393165318407161 0.0
3.42846431357046 1.714274134409306 0.0
5.26283485467567 1.710141275531951 0.0
3.966530105129177 1.718376080180638 0.0
4.891301048299285 1.259923533724591 0.0
0.2787500712946937 0.6906723798523376 0.0
1.822166578929051 0.7301892210727335 0.0
8.593276160688786 1.287322908694633 0.0
2.386017956680413 0.7288816957021155 0.0
3.576911792171353 0.7225526638483954 0.0
8.013982043315597 1.271118304297217 0.0
6.82303669320588 1.277631295759485 0.0
2.891837633696712 1.215141906356511 0.0
8.708162366297856 0.7848580936429009 0.0
7.496736072543097 0.7897651325976158 0.0
6.296736072542775 0.7897651325982009 0.0
5.523181420933933 0.7588744249744506 0.0
4.725538117155759 0.6529070682798582 0.0
2.736307197014292 0.273961667653487 0.0
7.663692802980817 1.726038332346062 0.0
6.446842959287713 1.783714797320288 0.0
1.126188383272983 1.743715177525389 0.0
2.64757240694847 1.787239829472812 0.0
6.546646507559373 0.2589894635657943 0.0
7.746646507561152 0.2589894635657218 0.0
4.079302268890254 1.221431431691139 0.0
4.433746883463333 0.2983726043497702 0.0
1.032697650548726 1.318076986199429 0.0
1.309492735411376 1.208980965369829 0.0
3.896105387998365 0.2579746081881307 0.0
9.378751775005455 1.725996478164223 0.0
9.3965279828929 0.2649862374471925 0.0
1.515757555362918 0.2603060454608533 0.0
4.959097093232828 1.726144293543605 0.0
4.912501341257775 0.2529154558175828 0.0
4.342421824442713 1.285376618065631 0.0
7.023506283123107 0.293611963231815 0.0
8.215829626877609 0.2682061590942965 0.0
5.28145265730745 1.291130016052329 0.0
8.693992162747364 1.744100892812201 0.0
0.6256567126095668 1.775064851453201 0.0
0.2724967459749605 1.756941612685287 0.0
8.90781713264278 0.2741674349222226 0.0
7.184202236567151 1.709454269177068 0.0
3.212962614055919 0.2641656831057426 0.0
0.6761590188374282 0.6746441670621973 0.0
1.020489328989316 0.2487299689497893 0.0
1.485017749467193 1.402133856149482 0.0
6.734223224917944 1.790518105434539 0.0
2.657549589911705 0.7636227781082678 0.0
6.542590471647475 1.237213715285722 0.0
7.742745187066703 1.235538225115726 0.0
0.5794341726414672 0.2480285055479751 0.0
1.842901067642841 1.760146518280044 0.0
3.84389577648662 0.7524680119172447 0.0
3.061589173628368 1.407936939342627 0.0
6.144447294584154 0.5911674363009913 0.0
7.344447294585433 0.5911674362995804 0.0
8.544447294586682 0.5911674362982269 0.0
5.491507940982565 0.1734458797927824 0.0
[...]
<PointData Vectors="fields">
<DataArray type="Float64" Name="U" NumberOfComponents="3" format="ascii">
0.0 0.0 0.0
0.029143463438134138 0.0 0.0
0.0022676803502232517 -0.005386272905122679 0.0
0.014551893635165375 -0.04685804082525572 0.0
0.026672177224451348 -0.005051992688271533 0.0
0.00028454401986704536 -0.005554110992245847 0.0
0.0008860886238492502 -0.009141149470688293 0.0
0.0014300145693620352 -0.012304884189298005 0.0
0.0018890243895744398 -0.01509067464394191 0.0
0.002291252480880623 -0.01774691213537903 0.0
0.002679215377667881 -0.020298805620071324 0.0
0.0030696008734349303 -0.022755897768022455 0.0
0.00349752023140174 -0.025130217215466454 0.0
0.003939706683101781 -0.027422845173060775 0.0
0.004416845515604828 -0.029609966376071883 0.0
0.004917123993277902 -0.03169110456260486 0.0
0.005461711813407414 -0.03366701429098271 0.0
0.006015561478255429 -0.035522473782572554 0.0
0.0066245179745782964 -0.03725705168585143 0.0
0.007232008777672059 -0.03886423589898863 0.0
0.00788834619087597 -0.04033683238939358 0.0
0.008547541382232415 -0.04166351918059518 0.0
0.009241805971776052 -0.04285313330432961 0.0
0.009942247474409933 -0.04386834388465966 0.0
0.01065149672621147 -0.0447789316049603 0.0
0.011391755420305419 -0.045515936587802626 0.0
0.012125671305541944 -0.04609072175509385 0.0
0.012882996269823437 -0.04651331682505025 0.0
0.01362982963892239 -0.046766512503294486 0.0
0.014408590561114895 -0.04686422732959244 0.0
0.015167189390974032 -0.046798374931890534 0.0
0.015926461821270967 -0.046565704069651284 0.0
0.01668246820672547 -0.04617263999413903 0.0
0.017428601985329178 -0.04561398615464438 0.0
0.018153733691996757 -0.04490263942247598 0.0
0.018892864775213757 -0.044043578204834476 0.0
0.019589663370764118 -0.0429913160675852 0.0
0.02028720376318151 -0.0418379169552825 0.0
0.020951825507870555 -0.04053425257412984 0.0
0.021613414280594087 -0.03906836089072205 0.0
0.022236063496241174 -0.03747086632570988 0.0
0.022835187482467934 -0.035748865382101876 0.0
0.023389982847290883 -0.03387591172008091 0.0
0.023932033307894184 -0.0319268358104173 0.0
0.024432611013494334 -0.029861050665439037 0.0
0.024914411835805575 -0.02768117157523968 0.0
0.02535780420813639 -0.025396690195943122 0.0
0.025782116411289788 -0.023030815249324446 0.0
0.026170414376988197 -0.0205757153666219 0.0
0.026566940708900783 -0.01802734089699496 0.0
0.026956434547772544 -0.015386854648217388 0.0
0.027389582351012604 -0.01259901059397147 0.0
0.027872087044057824 -0.009574638376171883 0.0
0.02861355723381096 -0.00596853079173414 0.0
0.02460387460902007 -0.0021181600402809687 0.0
0.021658386248254276 -0.0032890767178180907 0.0
0.018991058426504597 -0.0040316747639519085 0.0
0.01653922239210452 -0.0045907138282076446 0.0
0.014161630705679499 -0.004942794159532313 0.0
0.011826423618884432 -0.0051725070855789404 0.0
0.0094933467120655 -0.005310942423727555 0.0
0.007125923711852189 -0.005373079115604184 0.0
0.004716265025041851 -0.005386159045694255 0.0
0.0022658985178961896 -0.007844046897284952 0.0
0.0022731184424887928 -0.010333615989929712 0.0
0.0023194429774305563 -0.012861643143189048 0.0
0.002425652322357391 -0.015415316671802326 0.0
0.0026011066716806136 -0.017959070315968436 0.0
0.002838587495835192 -0.020460105905665542 0.0
0.003141946146836583 -0.022927072028082526 0.0
0.003497290420783567 -0.02530792620189247 0.0
0.0039051061173708762 -0.027601552744541 0.0
0.004370139686848552 -0.02980338168348957 0.0
0.00485708634834694 -0.031891960872397776 0.0
0.005404873065859547 -0.03387046462893476 0.0
0.005960478526390433 -0.03572769897686991 0.0
0.0065692227590131835 -0.03745655224979112 0.0
0.0071974498304776206 -0.03905798922097576 0.0
0.007853239728184507 -0.04052003990094734 0.0
0.008518124577502591 -0.04180893319669177 0.0
0.009222442489471594 -0.043011529200325783 0.0
0.009948465474264685 -0.04402694805644958 0.0
0.010674510328823949 -0.04489480718786843 0.0
0.011435009711311797 -0.045615054816487165 0.0
0.012220579159548595 -0.046167566696040434 0.0
0.012980284715441152 -0.04655882008101297 0.0
0.01377285269758679 -0.04679140892751246 0.0
0.015344202122038856 -0.04674932055116217 0.0
0.016098181887306235 -0.04649369178985729 0.0
0.01684120760254275 -0.04608062167588598 0.0
0.017596185277747405 -0.045516888981309296 0.0
0.018338879772028516 -0.044775045576139955 0.0
0.01907470868617003 -0.043881518555711124 0.0
0.019760600037637563 -0.042844996308316605 0.0
0.02045180684837577 -0.041658219453083865 0.0
0.02111804960392359 -0.04033361937273478 0.0
0.02177317565598082 -0.03886377906817947 0.0
0.022382820238650646 -0.037228593115616555 0.0
0.022985314538544285 -0.0355139786535928 0.0
0.02354451622284324 -0.03364431528560656 0.0
0.024069291399961692 -0.031656525828754126 0.0
0.02457603780464676 -0.029555736602127246 0.0
0.025035356311238804 -0.027347381500018125 0.0
0.025438000149122387 -0.025047796073457855 0.0
0.02580804380184351 -0.02265249481466618 0.0
0.026108430959983556 -0.020187784923786267 0.0
0.026348550013503325 -0.017662557732911394 0.0
0.02651534364154776 -0.015113229240364142 0.0
0.02661515098498598 -0.012551852114658726 0.0
0.026664340117754207 -0.010017301079539472 0.0
0.026675870299534395 -0.0075154283427540745 0.0
0.024214907013501787 -0.005053245777254099 0.0
0.021796064975259558 -0.0050406485156261034 0.0
0.019423245932994868 -0.004982798896515009 0.0
0.017076616428929686 -0.004850076581506119 0.0
0.014737218632171983 -0.004605090851624692 0.0
0.012353412181375234 -0.004258241379144411 0.0
0.009893810440901733 -0.003703849220613943 0.0
0.007237714598815915 -0.0029366929068534355 0.0
0.004088177068093388 -0.0016601871335376718 0.0
0.014193338284873852 -0.024037474208216968 0.0
0.014195145436784807 -0.03654350827007619 0.0
0.014516292403822692 -0.04459393551701693 0.0
0.014449018803442099 -0.0191284956210842 0.0
0.014179853619024366 -0.03297286203552415 0.0
0.01428539839713454 -0.04262986988586851 0.0
0.014453516280942408 -0.046993443345705495 0.0
0.01703590900004847 -0.01462971681862954 0.0
0.014839912141425299 -0.04680734365777138 0.0
0.011394645539890592 -0.03082538323439278 0.0
0.012525908168662855 -0.041176524597565795 0.0
0.011001244824855663 -0.026622430783384277 0.0
0.012053851174826184 -0.03840484639792927 0.0
0.013480763786047649 -0.04557152605174884 0.0
0.01663038646489785 -0.041033855290793744 0.0
0.017562353835064142 -0.030991116530718676 0.0
0.015621648189452176 -0.0454251629079261 0.0
0.017105166195209864 -0.038442811547680866 0.0
0.01821407894260535 -0.026601842024958328 0.0
0.013691344807520161 -0.04641423465652689 0.0
0.010561928609080746 -0.017561660116209916 0.0
0.018765828007428233 -0.012882280681982867 0.0
0.009740174434579744 -0.013053936162777245 0.0
0.014391229184581564 -0.04708993158988865 0.0
0.019768154054396598 -0.020878207270941078 0.0
0.016023609239245822 -0.045521995190009365 0.0
0.014355527815849489 -0.04707453437513545 0.0
0.009289617652296696 -0.02558441546858405 0.0
0.010433078736144857 -0.03550411361869412 0.0
0.01225527698700489 -0.04395137406212065 0.0
0.008440751482452337 -0.020989388494709195 0.0
0.009842644633976425 -0.031834811127533676 0.0
0.011522611635879447 -0.041830583716444145 0.0
0.01817820502884229 -0.03739752006911942 0.0
0.016844221456371825 -0.04319953822307386 0.0
0.018598041858880913 -0.034020352632316425 0.0
0.019962561376486596 -0.020856954097500945 0.0
0.008728038541649353 -0.010953877826291255 0.0
0.01530234798230655 -0.046694028789246396 0.0
0.02027293165878296 -0.026127600384459 0.0
0.021188231297713984 -0.010605194940342712 0.0
0.013291907701411544 -0.04649236789136389 0.0
0.017319194231073854 -0.04338793650216497 0.0
0.014010590567511869 -0.010211324830325818 0.0
0.014215893835140042 -0.010290163499049132 0.0
0.014442002387842476 -0.04715122662033834 0.0
0.011581251092917813 -0.044161160776260956 0.0
0.009520936995506293 -0.03570164215453404 0.0
0.01028397579097357 -0.0388750710175046 0.0
0.019716663869579647 -0.033989199659840715 0.0
0.020200715783476535 -0.030198485409794053 0.0
0.018182513597101654 -0.040837032388990134 0.0
0.014453363273233509 -0.0194466605249833 0.0
0.02164307255172289 -0.016300302661434646 0.0
0.014461062910110387 -0.04600073453759261 0.0
0.014559689461255515 -0.03983563942476812 0.0
0.014486054862313686 -0.044820869306170144 0.0
0.01455122283774709 -0.02869635325710756 0.0
0.014518744324270949 -0.03694334261950045 0.0
0.014287319945058677 -0.02432531404303 0.0
0.014576595119023207 -0.03296009522769464 0.0
0.014382118918998146 -0.02891762736254559 0.0
0.014407711990503523 -0.040057214106410194 0.0
0.01449074445334994 -0.04254083167610862 0.0
0.014462714508977851 -0.04619546729237799 0.0
0.015187993905879767 -0.04686658310066883 0.0
0.012308243347171682 -0.045341435533753346 0.0
0.007272195313136875 -0.02144978266068114 0.0
0.006690701936619961 -0.01646122765860073 0.0
0.02226817014134522 -0.016547948235837908 0.0
0.013563696308633551 -0.0467559409331439 0.0
0.022551585229911957 -0.009138913729507802 0.0
0.006323801812901892 -0.009384329396954062 0.0
0.007794001321481676 -0.029030737679640907 0.0
0.010796293739237321 -0.042211684940813836 0.0
0.007396287777432036 -0.02492397112610579 0.0
0.0098957279260746 -0.03941081408457297 0.0
0.018942295911246198 -0.039954058156649756 0.0
0.017017949861306874 -0.04478154115608357 0.0
0.01968983187172908 -0.03714122962737783 0.0
0.021609747007519914 -0.024759337821637042 0.0
0.015037283530542556 -0.014932220174341985 0.0
0.012258306143130641 -0.045495722464224016 0.0
0.006362606386628173 -0.015226295863603252 0.0
0.008146381250838507 -0.03275104589643367 0.0
0.0074118849128332965 -0.028752238079349825 0.0
0.013486703964552833 -0.04520991188825657 0.0
0.01133217141859599 -0.021922850653397077 0.0
0.010930107348613965 -0.017734198087739718 0.0
0.021301931069017593 -0.030137203264341876 0.0
0.013499555517594006 -0.014679697411153065 0.0
0.012311756760605298 -0.038054405187883646 0.0
0.013012953434660707 -0.04364553123138665 0.0
0.011896016451341744 -0.03473989884446254 0.0
0.016811877983927602 -0.03487984089806363 0.0
0.016981498772254126 -0.031172395329693636 0.0
0.016058217833144966 -0.04150628162291059 0.0
0.016071729800788186 -0.04620874893965048 0.0
0.017491080234858146 -0.00893343650935089 0.0
0.016249434555464373 -0.04592172909621365 0.0
0.017678403353768656 -0.008516479481445047 0.0
0.010609423792212755 -0.00905507744751995 0.0
0.013979753908051062 -0.04657563338883798 0.0
0.01793737746458746 -0.01748930393956559 0.0
0.014929491372853156 -0.04696709355653834 0.0
0.015681483755353012 -0.043691307297078014 0.0
0.016966191001134365 -0.026533965218764544 0.0
0.014361314101125256 -0.046770981976475695 0.0
0.014704730938517232 -0.047037386618147506 0.0
0.02226761380092038 -0.023143189349615994 0.0
0.0064443721944181164 -0.0073584602577666455 0.0
0.018625806563075786 -0.041966907285518204 0.0
0.013807295457778684 -0.046892590182605706 0.0
0.01730404847628853 -0.044786371587757244 0.0
0.014593897215000576 -0.04709563429894186 0.0
0.011090029801283713 -0.007773386912926689 0.0
0.011763623551695638 -0.027803663572720263 0.0
0.011213738253880301 -0.023141029964862798 0.0
0.012112654806896777 -0.033718876488773995 0.0
0.013054750697050584 -0.042969665398368884 0.0
0.011748371459822304 -0.029830937445465004 0.0
0.01262326361612691 -0.040589361468329074 0.0
0.016087277245846025 -0.03822841644016108 0.0
0.016722788815060903 -0.021786838764700042 0.0
0.016181694712893886 -0.03506171134377493 0.0
0.015409497522102137 -0.04381638732895317 0.0
0.01490004874575481 -0.04661706630992571 0.0
0.014091641965041809 -0.04694739179096706 0.0
0.008719521013905288 -0.03682901363384726 0.0
0.007840711863458834 -0.03335304233781913 0.0
0.010263720813619715 -0.04284387878139701 0.0
0.023091982260806974 -0.019306282589666077 0.0
0.020990028744525345 -0.03601806118353221 0.0
0.01858243644757375 -0.04228931492289251 0.0
0.021270969795792162 -0.0325571638138905 0.0
0.015253960994258884 -0.04534896633696043 0.0
0.012939903078501569 -0.04632170686186507 0.0
0.018247690199873344 -0.01815703893640863 0.0
0.016889204567526628 -0.021678829742531124 0.0
0.011403169066238223 -0.04446545845012655 0.0
0.005703123709433417 -0.013140972466962067 0.0
0.023493095184214285 -0.012688055665866598 0.0
0.006350726595759703 -0.024221951828390834 0.0
0.01464261347220349 -0.046999634476202146 0.0
0.0141744488320976 -0.046973257023414025 0.0
0.015202367834872584 -0.046198053516491755 0.0
0.01947121045061462 -0.03901036681479947 0.0
0.022005739091866917 -0.02758212340840461 0.0
0.014168297029124486 -0.04698863598982786 0.0
0.006028700269519357 -0.02183095562383346 0.0
0.02381334196292356 -0.01289119331459374 0.0
0.023680931446406213 -0.008408060698282272 0.0
0.022909644244686236 -0.01927753030732341 0.0
0.008960062932668612 -0.03770551855113997 0.0
0.009728873267570486 -0.04054353045867775 0.0
0.010837615778856325 -0.013415596403246088 0.0
0.005549460204494608 -0.0180659416273182 0.0
0.018895082679378523 -0.023801450341300018 0.0
0.009444494337384162 -0.041052887837328446 0.0
0.01258366683649284 -0.036244240828887095 0.0
0.013099930849033072 -0.04244307100158616 0.0
0.012249703736106003 -0.032669129852060184 0.0
0.005131521778789394 -0.012012524773128213 0.0
0.02232571350685634 -0.02790304014243711 0.0
0.013426093058335996 -0.04435007106311348 0.0
0.01730631454564049 -0.03952715871012486 0.0
0.016124053640107855 -0.044518696269360225 0.0
0.017691843046491428 -0.036418177604334565 0.0
0.01882456710784313 -0.02379562475266292 0.0
0.01594037188158571 -0.04650172332791177 0.0
0.012142694191912032 -0.024812358565935902 0.0
0.020149704455966505 -0.03844349372816821 0.0
0.020895365355455112 -0.035371458693754805 0.0
0.017942862543076442 -0.043891978236013145 0.0
0.020091042898346557 -0.013574851132227731 0.0
0.01203528333193412 -0.013019858703797833 0.0
0.01256536291889215 -0.046058386876568894 0.0
0.016202453962079814 -0.04445963639207362 0.0
0.0076300756638329505 -0.03477080543030073 0.0
0.006732267391898736 -0.031020867044498458 0.0
0.01569104342389685 -0.04602944247225431 0.0
0.011709627628358416 -0.020872598373298516 0.0
0.019621850158603654 -0.029234635540465317 0.0
0.01657804189927556 -0.011778919543811129 0.0
0.016928408639651393 -0.04558899168508807 0.0
0.02050942897344717 -0.0069639465205988795 0.0
0.01065100359091033 -0.04329030080795736 0.0
0.006304431679444326 -0.026905322069276833 0.0
0.01539446458494351 -0.046603204788399244 0.0
0.011289685602527792 -0.044709535841339784 0.0
0.016617637484415713 -0.04265999162916353 0.0
0.02188070916089724 -0.03256862161441932 0.0
0.014446244889184457 -0.04714392832708563 0.0
0.015010209337820005 -0.007755730178387795 0.0
0.013454152389459977 -0.04623095290485331 0.0
0.014135618551409273 -0.04556370205123587 0.0
0.013399688849880322 -0.026651608987689333 0.0
0.013696970769593059 -0.038415685759123935 0.0
0.013612924627208275 -0.030832521831246393 0.0
0.01389407449943126 -0.04117054279465178 0.0
0.00529927981446314 -0.018704811069489045 0.0
0.015257328666064678 -0.007466580601075561 0.0
0.018227220154538478 -0.0436772297316149 0.0
0.014468980580772877 -0.04714347844665884 0.0
0.014037969989148722 -0.04698506520967354 0.0
0.01146555634254971 -0.01028704578359417 0.0
0.02351736171579852 -0.02185537786807427 0.0
0.01829694600834604 -0.029125419587489067 0.0
0.01840288851670512 -0.03286586636770371 0.0
0.017018959559877915 -0.040160156093699696 0.0
0.011294384367593297 -0.0366876149046764 0.0
0.011836964395701536 -0.03972791863140571 0.0
0.012891829304436666 -0.04475661455377738 0.0
0.006603283698294031 -0.030869587657534635 0.0
0.005836536619346374 -0.026680412637634928 0.0
0.011995840773298856 -0.04307209256855125 0.0
0.010279063219711518 -0.03385544838873292 0.0
0.010877334192072922 -0.03728021605760597 0.0
0.01674931799520152 -0.028798704737937483 0.0
0.01615009226897604 -0.012267970688073369 0.0
0.008453507498961933 -0.007732156428351 0.0
0.019944379080451883 -0.0066501103196164885 0.0
0.0152187895128555 -0.04114062509685864 0.0
0.015617508098083308 -0.03100310847674368 0.0
0.014845843104447561 -0.045483861355011 0.0
0.015300916405161128 -0.038364357934652094 0.0
0.01562794224996473 -0.026458971251835595 0.0
0.022535654718507134 -0.02561983569594859 0.0
0.008750050920374848 -0.005941422505280334 0.0
0.01841424676341614 -0.03578213722012164 0.0
0.017124101576293026 -0.04211483600351628 0.0
0.0188015141836989 -0.03218918135759963 0.0
0.013656962200542813 -0.034816840727792626 0.0
0.013877186381802537 -0.0414671279311224 0.0
0.013457272103697493 -0.031035302133070576 0.0
0.015870323493272415 -0.04653963214971872 0.0
0.014025238896966942 -0.04369395806003579 0.0
0.01023936961624376 -0.03250489923688873 0.0
0.00971606857279859 -0.028472339364151278 0.0
0.017078816824542216 -0.04537973899857348 0.0
0.01490176964253789 -0.04694956692231322 0.0
0.01219269634131181 -0.019643778335400264 0.0
0.013565096161834225 -0.02167610799031332 0.0
0.013213578712089108 -0.016806269855644748 0.0
0.012790210526366691 -0.04511150262107129 0.0
0.013626484067398734 -0.026473812397500466 0.0
0.007528129444793956 -0.03490287590945566 0.0
0.008525406163003632 -0.03817266294049429 0.0
0.014551091445709298 -0.04697229879614526 0.0
0.02188453929490893 -0.030660882677442117 0.0
0.019207355596741887 -0.041100838713154564 0.0
0.011213459002762776 -0.04098067176363633 0.0
0.010532491797305936 -0.03813681445652179 0.0
0.009315079244458372 -0.022400563047702604 0.0
0.024356177040017454 -0.006087781250048283 0.0
0.004850052278601057 -0.007971687231115672 0.0
0.015356284170773567 -0.01660182183085888 0.0
0.015052243008212738 -0.04618195654030167 0.0
0.01420351021445455 -0.04540759553690801 0.0
0.013883916599348059 -0.045936952580945635 0.0
0.012676685745053224 -0.007693261046680701 0.0
0.013030877042237213 -0.04653214627158484 0.0
0.023944266095627838 -0.01666686907388757 0.0
0.013674867579016788 -0.021725492375503155 0.0
0.019149089373872885 -0.01137615479562004 0.0
0.013202520376180369 -0.045762844790234576 0.0
0.014018520994296142 -0.03827920423169258 0.0
0.014093776347294163 -0.04387574147616183 0.0
0.013813625615878724 -0.03514275366008245 0.0
0.009427105199149667 -0.019991644067490603 0.0
0.009610481140419883 -0.027840623238776122 0.0
0.009145565156929289 -0.02335123726633203 0.0
0.012014180214677936 -0.042953363400786516 0.0
0.011302876485120378 -0.04052998111605953 0.0
0.014721381038101338 -0.04652875883051487 0.0
0.011596978716326957 -0.045234115375444556 0.0
0.02010030924198641 -0.01869809765003335 0.0
0.0202073110950886 -0.02661860583737986 0.0
0.018474231449135542 -0.03842064322946231 0.0
0.013995233364217877 -0.04619250753143417 0.0
0.016218802258693356 -0.045496273379674754 0.0
0.004830203523174811 -0.021912001649448933 0.0
0.00871433063772313 -0.0182495883918401 0.0
0.009159281925495297 -0.01569493010557835 0.0
0.01675423749861975 -0.023966528993696213 0.0
0.01600221659857378 -0.0396017376234493 0.0
0.01620961782776565 -0.03662318790434248 0.0
0.015343529418679183 -0.04463265361648729 0.0
0.01792139827281693 -0.04132061788584364 0.0
0.013187110106500366 -0.03976169402184276 0.0
0.013685455248434453 -0.04476705000171527 0.0
0.012879224411728753 -0.036771285881632775 0.0
0.023819296834627728 -0.010579533298787296 0.0
0.014374596725303538 -0.04669669502427871 0.0
0.016878745542365008 -0.03668782348152043 0.0
0.016981317094159946 -0.03351076084619081 0.0
0.015939125778796265 -0.04292983876193943 0.0
0.01559513751652285 -0.04242951187586495 0.0
0.010531161945318251 -0.043697963643689 0.0
0.014725988859154882 -0.04705039418219538 0.0
0.015794776761810462 -0.03989359849070343 0.0
0.016434562359018363 -0.028694179792532123 0.0
0.016373703591510573 -0.01935007268065783 0.0
0.019400693729264444 -0.04082536632171713 0.0
0.008866725594882144 -0.01066976651117251 0.0
0.019568435872436295 -0.010103324397506178 0.0
0.021458047254123428 -0.03454501139809175 0.0
0.008032236353682679 -0.01762899926260949 0.0
0.013373025650380385 -0.04649409445152295 0.0
0.01981312105042217 -0.015354909928362945 0.0
0.01932626624458838 -0.015687988161626344 0.0