<VTKFile type="UnstructuredGrid"  version="0.1">
<UnstructuredGrid>
<Piece NumberOfPoints="713" NumberOfCells="1304">
<Points>
<DataArray type="Float64" NumberOfComponents="3" format="ascii">
0.0 0.0 0.0
10.0 0.0 0.0
10.0 2.0 0.0
5.0 2.0 0.0
0.0 2.0 0.0
0.199999999999856 0.0 0.0
0.3999999999996677 0.0 0.0
0.5999999999994683 0.0 0.0
0.7999999999993286 0.0 0.0
0.9999999999991888 0.0 0.0
1.199999999999033 0.0 0.0
1.399999999998576 0.0 0.0
1.599999999997992 0.0 0.0
1.799999999997408 0.0 0.0
1.999999999996825 0.0 0.0
2.199999999996241 0.0 0.0
2.399999999995657 0.0 0.0
2.599999999995073 0.0 0.0
2.79999999999449 0.0 0.0
2.999999999993906 0.0 0.0
3.199999999993322 0.0 0.0
3.399999999992738 0.0 0.0
3.599999999992154 0.0 0.0
3.799999999991571 0.0 0.0
3.999999999991022 0.0 0.0
4.199999999991187 0.0 0.0
4.399999999991491 0.0 0.0
4.599999999991795 0.0 0.0
4.799999999992099 0.0 0.0
4.999999999992403 0.0 0.0
5.199999999992706 0.0 0.0
5.39999999999301 0.0 0.0
5.599999999993313 0.0 0.0
5.799999999993618 0.0 0.0
5.999999999993922 0.0 0.0
6.199999999994227 0.0 0.0
6.39999999999453 0.0 0.0
6.599999999994833 0.0 0.0
6.799999999995138 0.0 0.0
6.999999999995442 0.0 0.0
7.199999999995747 0.0 0.0
7.39999999999605 0.0 0.0
7.599999999996353 0.0 0.0
7.799999999996658 0.0 0.0
7.999999999996962 0.0 0.0
8.199999999997265 0.0 0.0
8.399999999997569 0.0 0.0
8.599999999997873 0.0 0.0
8.799999999998176 0.0 0.0
8.99999999999848 0.0 0.0
9.199999999998786 0.0 0.0
9.399999999999089 0.0 0.0
9.599999999999392 0.0 0.0
9.799999999999697 0.0 0.0
10.0 0.1999999999996293 0.0
10.0 0.3999999999991157 0.0
10.0 0.5999999999985328 0.0
10.0 0.7999999999979498 0.0
10.0 0.9999999999973885 0.0
10.0 1.199999999997894 0.0
10.0 1.39999999999842 0.0
10.0 1.599999999998947 0.0
10.0 1.799999999999474 0.0
9.799999999999999 2.0 0.0
9.6 2.0 0.0
9.399999999999999 2.0 0.0
9.2 2.0 0.0
8.999999999999998 2.0 0.0
8.799999999999999 2.0 0.0
8.599999999999998 2.0 0.0
8.399999999999999 2.0 0.0
8.2 2.0 0.0
7.999999999999998 2.0 0.0
7.799999999999999 2.0 0.0
7.599999999999999 2.0 0.0
7.399999999999999 2.0 0.0
7.199999999999999 2.0 0.0
7.0 2.0 0.0
6.799999999999999 2.0 0.0
6.6 2.0 0.0
6.399999999999999 2.0 0.0
6.199999999999999 2.0 0.0
5.999999999999999 2.0 0.0
5.8 2.0 0.0
5.6 2.0 0.0
5.399999999999999 2.0 0.0
5.199999999999999 2.0 0.0
4.8 2.0 0.0
4.6 2.0 0.0
4.399999999999999 2.0 0.0
4.199999999999998 2.0 0.0
3.999999999999999 2.0 0.0
3.799999999999999 2.0 0.0
3.599999999999999 2.0 0.0
3.399999999999999 2.0 0.0
3.199999999999998 2.0 0.0
2.999999999999999 2.0 0.0
2.799999999999999 2.0 0.0
2.599999999999999 2.0 0.0
2.399999999999999 2.0 0.0
2.199999999999999 2.0 0.0
2.0 2.0 0.0
1.799999999999999 2.0 0.0
1.599999999999999 2.0 0.0
1.399999999999999 2.0 0.0
1.199999999999999 2.0 0.0
0.9999999999999991 2.0 0.0
0.7999999999999998 2.0 0.0
0.5999999999999996 2.0 0.0
0.3999999999999995 2.0 0.0
0.1999999999999993 2.0 0.0
0.0 1.799999999999167 0.0
0.0 1.6 0.0
0.0 1.400000000001387 0.0
0.0 1.200000000002774 0.0
0.0 1.000000000004117 0.0
0.0 0.8000000000033287 0.0
0.0 0.6000000000024965 0.0
0.0 0.4000000000016644 0.0
0.0 0.200000000000832 0.0
1.499207686858938 0.9671416246672391 0.0
2.690335006295381 0.9619521672166851 0.0
3.892537609238439 1.007271393615351 0.0
8.916602958236062 0.9848120741100651 0.0
7.714518201951718 1.024234589865042 0.0
6.514518201951581 1.024234589865268 0.0
5.299999999999998 1.000000000000349 0.0
0.7620577975594133 1.201991596673393 0.0
4.61755859746166 1.240410629378135 0.0
2.099999999996533 0.6749999999988996 0.0
3.289480163184942 0.6802242156869155 0.0
8.299999999999976 1.325000000000064 0.0
7.110519836808121 1.319775784312006 0.0
5.893184537067197 1.292851873188582 0.0
3.268568008578649 1.341967835735878 0.0
2.118368267083699 1.321829331075689 0.0
5.930896443153832 0.6493414313150682 0.0
7.106926174231782 0.6329785805444448 0.0
8.306926174233002 0.6329785805444098 0.0
4.427960725065653 0.6389803625370323 0.0
0.9828791719046732 0.6520555711814596 0.0
9.383333333333349 0.6166666666667164 0.0
9.383333333333326 1.383333333333367 0.0
4.974443803660211 0.5526668589022862 0.0
1.248084267804327 1.464555585366204 0.0
4.139486343919472 1.468449088519687 0.0
5.077806736162063 1.478342020848787 0.0
1.629462398503482 0.5098631373669138 0.0
2.579462070540726 0.5133714280880515 0.0
3.770778974032556 0.5099482598296803 0.0
8.764748922637567 1.526880805960684 0.0
7.820537929455645 1.486628571911716 0.0
6.632254923791462 1.492045881343967 0.0
2.796478414430566 1.477149214423874 0.0
6.403521585563812 0.5228507855762514 0.0
7.603521585564883 0.5228507855756581 0.0
8.783559188644787 0.5066440811355862 0.0
0.5060338924245764 0.5082251307884346 0.0
5.451633334958382 0.4799315318847731 0.0
1.683269995544083 1.547372422998862 0.0
0.448590368789599 1.551409631210402 0.0
5.545526974704655 1.582008455135239 0.0
3.666056976948354 1.56999765613834 0.0
0.4385739326402744 0.9352922270094057 0.0
9.58170539854767 0.9922137522194456 0.0
4.93200119575972 0.9247090920592975 0.0
6.20679636316332 1.642443126922768 0.0
7.418963044745086 1.587405313446662 0.0
2.98103695524982 0.412594686552066 0.0
2.420975602092416 1.592770352831584 0.0
7.97902439790374 0.4072296471687943 0.0
6.779024397902082 0.4072296471687297 0.0
1.130444757308209 0.9859238872709168 0.0
0.8901814758011342 1.60566856081121 0.0
4.263670373274499 0.9915754392410991 0.0
3.096698167273431 1.009056907826855 0.0
6.088506433998166 0.9857489435828969 0.0
1.902225037409936 1.003483800311746 0.0
7.288506433998439 0.9857489435828686 0.0
8.498964973312972 1.005823551167602 0.0
2.307571737417198 1.008136792450924 0.0
8.100397971125554 1.000138280273345 0.0
6.900397971125225 1.000138280273792 0.0
3.499307350770321 0.9996496628144824 0.0
5.703656022566558 0.9885479657552226 0.0
4.719420624357892 1.622286409566126 0.0
4.099803549896894 0.3600308081356619 0.0
1.286100671532495 0.3637431910670685 0.0
9.120549139677793 1.655065205594329 0.0
9.11726214008418 0.3400668903113251 0.0
4.642568097328033 0.3514924793220939 0.0
9.630437629189052 0.3309104953729904 0.0
9.674493769554315 1.668196579944218 0.0
1.936458797611609 0.3337070483410596 0.0
3.461817573918652 0.3447876019040473 0.0
8.440152788772068 1.649667667046397 0.0
6.973083089482548 1.643748677366674 0.0
3.126874515006838 1.659115470008545 0.0
6.070607878384977 0.3410183041038941 0.0
7.255014454789089 0.32792256737713 0.0
8.462493615948901 0.3368393217476116 0.0
9.236261261261264 0.9276047786917867 0.0
5.885444386845415 1.667751020273455 0.0
0.8062340689595878 0.3261579034781319 0.0
2.29463843780282 0.308358158429197 0.0
8.10536156219338 1.691641841570632 0.0
4.041916759198581 0.7211683801597477 0.0
1.324377365289917 0.710525897087282 0.0
9.023167917315867 1.292262965009952 0.0
2.044244009166302 1.693807225416931 0.0
0.7675765545556328 0.8969765944392112 0.0
2.86965991063896 0.7069213925303978 0.0
6.330340089355722 1.293078607468788 0.0
7.530340089355831 1.29307860746885 0.0
2.509347777214458 1.27231292939881 0.0
7.890652222779963 0.7276870706009825 0.0
6.690652222780154 0.7276870706013264 0.0
4.380959112578968 1.65866292149053 0.0
0.3278422400819535 1.233362752678148 0.0
5.754468991464942 0.3469215055361071 0.0
9.69195804401614 0.7000195364707393 0.0
9.691250997975434 1.303243780084337 0.0
5.54324561063747 1.237401556904767 0.0
9.044596057577811 0.6843248705785732 0.0
5.208929198448351 0.3519433027337513 0.0
3.708880196230617 1.249762029554333 0.0
1.713349558540635 1.234899745098077 0.0
4.586522821995393 0.9261740906803194 0.0
5.241145838821565 0.7007005766013242 0.0
1.434457446926135 1.701926055218157 0.0
0.2821921707428039 0.3393165318407161 0.0
3.42846431357046 1.714274134409306 0.0
5.26283485467567 1.710141275531951 0.0
3.966530105129177 1.718376080180638 0.0
4.891301048299285 1.259923533724591 0.0
0.2787500712946937 0.6906723798523376 0.0
1.822166578929051 0.7301892210727335 0.0
8.593276160688786 1.287322908694633 0.0
2.386017956680413 0.7288816957021155 0.0
3.576911792171353 0.7225526638483954 0.0
8.013982043315597 1.271118304297217 0.0
6.82303669320588 1.277631295759485 0.0
2.891837633696712 1.215141906356511 0.0
8.708162366297856 0.7848580936429009 0.0
7.496736072543097 0.7897651325976158 0.0
6.296736072542775 0.7897651325982009 0.0
5.523181420933933 0.7588744249744506 0.0
4.725538117155759 0.6529070682798582 0.0
2.736307197014292 0.273961667653487 0.0
7.663692802980817 1.726038332346062 0.0
6.446842959287713 1.783714797320288 0.0
1.126188383272983 1.743715177525389 0.0
2.64757240694847 1.787239829472812 0.0
6.546646507559373 0.2589894635657943 0.0
7.746646507561152 0.2589894635657218 0.0
4.079302268890254 1.221431431691139 0.0
4.433746883463333 0.2983726043497702 0.0
1.032697650548726 1.318076986199429 0.0
1.309492735411376 1.208980965369829 0.0
3.896105387998365 0.2579746081881307 0.0
9.378751775005455 1.725996478164223 0.0
9.3965279828929 0.2649862374471925 0.0
1.515757555362918 0.2603060454608533 0.0
4.959097093232828 1.726144293543605 0.0
4.912501341257775 0.2529154558175828 0.0
4.342421824442713 1.285376618065631 0.0
7.023506283123107 0.293611963231815 0.0
8.215829626877609 0.2682061590942965 0.0
5.28145265730745 1.291130016052329 0.0
8.693992162747364 1.744100892812201 0.0
0.6256567126095668 1.775064851453201 0.0
0.2724967459749605 1.756941612685287 0.0
8.90781713264278 0.2741674349222226 0.0
7.184202236567151 1.709454269177068 0.0
3.212962614055919 0.2641656831057426 0.0
0.6761590188374282 0.6746441670621973 0.0
1.020489328989316 0.2487299689497893 0.0
1.485017749467193 1.402133856149482 0.0
6.734223224917944 1.790518105434539 0.0
2.657549589911705 0.7636227781082678 0.0
6.542590471647475 1.237213715285722 0.0
7.742745187066703 1.235538225115726 0.0
0.5794341726414672 0.2480285055479751 0.0
1.842901067642841 1.760146518280044 0.0
3.84389577648662 0.7524680119172447 0.0
3.061589173628368 1.407936939342627 0.0
6.144447294584154 0.5911674363009913 0.0
7.344447294585433 0.5911674362995804 0.0
8.544447294586682 0.5911674362982269 0.0
5.491507940982565 0.1734458797927824 0.0
[...]
<PointData Vectors="fields">
<DataArray type="Float64" Name="U" NumberOfComponents="3" format="ascii">
0.0 0.0 0.0
0.028695445028709448 0.0 0.0
0.0024298063262885895 -0.005315584128805139 0.0
0.014286800921165042 -0.04591195962514578 0.0
0.026128037739227887 -0.004933754443333366 0.0
0.00030824785403178604 -0.005447569881209913 0.0
0.0009009442949353134 -0.008947868839764415 0.0
0.0014339311842270414 -0.012049549610759954 0.0
0.001878888589784858 -0.014775526615170235 0.0
0.0022685708650136472 -0.01737876429841656 0.0
0.002644307271499592 -0.019880505566777174 0.0
0.00302194396245361 -0.022289112513000746 0.0
0.0034371148643720403 -0.02461800232422488 0.0
0.003866162431385542 -0.02686834255961472 0.0
0.004330342246799489 -0.029015826365888987 0.0
0.00481890701248979 -0.031059298988654574 0.0
0.005352478708879078 -0.03300081090643214 0.0
0.005896475165321433 -0.03482340040546499 0.0
0.0064965062816665 -0.036527235482469625 0.0
0.007094524828923492 -0.038104810607281665 0.0
0.007740985746704671 -0.039549684904777845 0.0
0.008390438981833963 -0.0408492696285185 0.0
0.009074488166065297 -0.04201357980320026 0.0
0.009767791786551102 -0.04300391572505292 0.0
0.010470885031586646 -0.04389316127982106 0.0
0.011207729225921026 -0.0446101815880755 0.0
0.0119407943994611 -0.04516756604510548 0.0
0.012697887326041355 -0.045575372555795496 0.0
0.013442395563433298 -0.04581600167067384 0.0
0.014215288329740332 -0.04590620741741025 0.0
0.014963880161977815 -0.04583735585436538 0.0
0.015708963535055617 -0.04560491303495698 0.0
0.01644909155826825 -0.045216910708411794 0.0
0.017179873843376943 -0.04466751899700409 0.0
0.017892147899181164 -0.04396839705368672 0.0
0.01862146123621121 -0.04312579319185287 0.0
0.019313895590758197 -0.04209004856980936 0.0
0.020008038767585393 -0.040956742789326574 0.0
0.020668588315725364 -0.0396750225253696 0.0
0.021323950807202993 -0.038233249259596654 0.0
0.021936689829705952 -0.03666279886435261 0.0
0.022521424160856847 -0.034972297365540604 0.0
0.02305878712629365 -0.03313369891600211 0.0
0.02358101723008686 -0.03122532876975683 0.0
0.02405974999110479 -0.0292041373536392 0.0
0.02451875803066255 -0.027074166335434247 0.0
0.024940612464054157 -0.02484362078431555 0.0
0.025345908305490033 -0.022535838836557943 0.0
0.025718311097861723 -0.02014133950181015 0.0
0.026102573248155368 -0.017655696336443864 0.0
0.02648314775864754 -0.015081167850740837 0.0
0.0269102262064954 -0.01236036851067239 0.0
0.02738493806624664 -0.0094055027443123 0.0
0.02811939806708994 -0.005884793551620849 0.0
0.024235582260990422 -0.0021011443688756415 0.0
0.02136662256147124 -0.0032553863995958944 0.0
0.0187617695107905 -0.003989602967301898 0.0
0.01637248296209191 -0.004542278923006602 0.0
0.014051600809594358 -0.00488693208485173 0.0
0.011771247727756945 -0.005109508943364784 0.0
0.009491512479200619 -0.005243315885346822 0.0
0.0071772959133336815 -0.005303091080261361 0.0
0.004822384631365673 -0.005315329128804574 0.0
0.002428142655096425 -0.0077167950569485624 0.0
0.0024347668515441053 -0.010148467950357877 0.0
0.0024792264414816904 -0.012616574348911926 0.0
0.0025812617538779276 -0.015109220479956376 0.0
0.0027494499932366736 -0.017591314556395555 0.0
0.002977407940236611 -0.020030654289673374 0.0
0.003266973734619963 -0.02243825864584334 0.0
0.003605728524350009 -0.024761878984886992 0.0
0.003994807327923651 -0.02700104539686478 0.0
0.004438649472941544 -0.02915348598660105 0.0
0.004903848696552725 -0.031196667902836855 0.0
0.005429751204423997 -0.03313505322326109 0.0
0.005964704105468262 -0.03495605994788335 0.0
0.006555558919759737 -0.03665386953248929 0.0
0.007170105368753154 -0.03822780316087746 0.0
0.007815575382648158 -0.03966596174612216 0.0
0.008473787240030952 -0.04093265554976614 0.0
0.009170002570187078 -0.04211756400575354 0.0
0.009881922107458462 -0.043116438038060645 0.0
0.010587044382078616 -0.04397016722347061 0.0
0.011319188812186997 -0.04467868646356196 0.0
0.012070257643738792 -0.045223242588441445 0.0
0.012791668238736318 -0.04560984704920247 0.0
0.013545029435341329 -0.045841805260898004 0.0
0.01504572358039842 -0.045810592987395524 0.0
0.015770544902779397 -0.045567212475652805 0.0
0.016487944093019007 -0.04516842509191621 0.0
0.017220528262481712 -0.04462210724475843 0.0
0.017944435026431782 -0.04389933169793169 0.0
0.01866428653934507 -0.04302734828030245 0.0
0.019336623250350207 -0.04201421298678782 0.0
0.02001779435812616 -0.04085127059416187 0.0
0.02067790280988374 -0.039552805461270824 0.0
0.02132959618790608 -0.03810996924259949 0.0
0.02193809437636545 -0.03650099130937322 0.0
0.022538131623149826 -0.03481705820455536 0.0
0.02309047344356767 -0.032978950139522 0.0
0.023605889282759876 -0.031025189035010996 0.0
0.024100740520317743 -0.028961081295127863 0.0
0.02454690124554195 -0.026793426436304665 0.0
0.024936461399950635 -0.02453752197708641 0.0
0.025294105490864405 -0.0221878951792072 0.0
0.02558384280046621 -0.0197719984392931 0.0
0.025815865468380692 -0.01729659544798483 0.0
0.025977068481081184 -0.014798287159953863 0.0
0.026073358287809253 -0.012287222739887233 0.0
0.0261205015392328 -0.009802645884692963 0.0
0.026131763460751606 -0.007349570137257616 0.0
0.023718084522363955 -0.004934984972134061 0.0
0.021345523852096655 -0.004923188296866972 0.0
0.019018381603747924 -0.004867329915605168 0.0
0.016716381639952475 -0.004737989633659513 0.0
0.014423251651700346 -0.004498912986794735 0.0
0.012085852573388376 -0.004159000738365405 0.0
0.009675744161226456 -0.003616508831857864 0.0
0.007073161455488057 -0.002868306775628762 0.0
0.0039848515130105 -0.0016186507004097078 0.0
0.01391978807407814 -0.023591249620680214 0.0
0.013918211148529203 -0.0359035757147966 0.0
0.01424253327865875 -0.04380928266561856 0.0
0.014298820414783652 -0.01876471513316596 0.0
0.01402815680292608 -0.03231140147478181 0.0
0.014116813769709368 -0.041831909173191933 0.0
0.01423942981733271 -0.04612028789254072 0.0
0.01669868685590835 -0.014344213423057094 0.0
0.014575566281677988 -0.04595710239427393 0.0
0.011174523983138398 -0.030264086314226824 0.0
0.012289283822280651 -0.04045044322784011 0.0
0.010929397358442013 -0.02608530971762174 0.0
0.011932125628996634 -0.03765320969823889 0.0
0.013323906737953736 -0.04471480130281063 0.0
0.016292862636378674 -0.04031449865032638 0.0
0.017219490774150612 -0.030425974475917293 0.0
0.015403411389451067 -0.044565144032026265 0.0
0.01689730040851901 -0.03768636263569732 0.0
0.0179711065438902 -0.0260624914877889 0.0
0.013462595295281725 -0.04557075506350429 0.0
0.01037043111953073 -0.01722860603111276 0.0
0.018499314468382957 -0.01265972948645775 0.0
0.009718855529691114 -0.012817232735055297 0.0
0.014176049401857564 -0.04620679554903383 0.0
0.019374441906049412 -0.020475976690923367 0.0
0.015703924590298075 -0.044696683209996174 0.0
0.014121398957282465 -0.046186920635309964 0.0
0.009116018646151509 -0.0251021148132018 0.0
0.010231231863859234 -0.034861125377762245 0.0
0.012031693752222792 -0.043156992463360716 0.0
0.00844134672353039 -0.020571426150563163 0.0
0.009782337604813514 -0.03118351388505667 0.0
0.011415530153793154 -0.04102252411658398 0.0
0.017814700979025464 -0.036729680601118225 0.0
0.016618608591944837 -0.042368059464020044 0.0
0.018360904583662983 -0.033325836639044495 0.0
0.019667086118632358 -0.020447520983492045 0.0
0.008577250721071614 -0.010742740660251264 0.0
0.015083853444393886 -0.045798648209512766 0.0
0.019873893840259248 -0.025630287820151393 0.0
0.020755649438646405 -0.010384914148255788 0.0
0.013120569286407514 -0.04559801577934367 0.0
0.016957347123153582 -0.04260422914643483 0.0
0.013736810810825206 -0.010006072690876024 0.0
0.014080909462019765 -0.010118220090582532 0.0
0.014212586840636865 -0.046286653660366175 0.0
0.01148225426620578 -0.043301671558648676 0.0
0.009453796820082707 -0.03497423351753763 0.0
0.010088668919928573 -0.03816849186312979 0.0
0.01933149350727111 -0.033363608288569144 0.0
0.019921191605607357 -0.029570023578673877 0.0
0.017947663424019 -0.04002912540555263 0.0
0.01417563141532023 -0.019079975023526898 0.0
0.02120564250259874 -0.01597510977763504 0.0
0.014200190847598174 -0.04518196201940896 0.0
0.014274960334852095 -0.03914454989451234 0.0
0.014302004544866258 -0.043986050324578356 0.0
0.014268624031428465 -0.028173198570869806 0.0
0.014356176269827353 -0.036217899219981996 0.0
0.014139008976475013 -0.023843261874486762 0.0
0.014292279509613271 -0.03237239122449704 0.0
0.014229205216590459 -0.028335168111146065 0.0
0.014242335328830546 -0.03929145081216849 0.0
0.014210607067423464 -0.041799841627703775 0.0
0.014266159952177497 -0.04533293800285356 0.0
0.01490250832742401 -0.04598294854921396 0.0
0.012094825536646843 -0.044499755775576175 0.0
0.007144840489861438 -0.021035862267753037 0.0
0.006741021433538756 -0.016141899677791584 0.0
0.021909729040958684 -0.016237631370085832 0.0
0.01335635232433547 -0.0458708011112537 0.0
0.022184004988311745 -0.008997633659612599 0.0
0.006390286644862735 -0.009224044350989774 0.0
0.007645570857465916 -0.02847919731084723 0.0
0.01059585948807373 -0.041436840411388585 0.0
0.007413445050801205 -0.024411324755814638 0.0
0.009815952252549102 -0.03862218993763935 0.0
0.018551276666062867 -0.039228494523444984 0.0
0.0167776380170577 -0.0439032495174312 0.0
0.01943648085839459 -0.0363798591649572 0.0
0.021280587127976633 -0.024248295515851143 0.0
0.014872986087250491 -0.014662926955431067 0.0
0.01213551145645399 -0.04460927147748885 0.0
0.006261871650867841 -0.01493125235489767 0.0
0.007988303014819242 -0.032135528225418916 0.0
0.007416713643970561 -0.02815211791889898 0.0
0.013244533555664578 -0.0444031756146917 0.0
0.011120449325973678 -0.02151196050929494 0.0
0.010872805815283689 -0.017396730190535406 0.0
0.020887493680723374 -0.02956327383159675 0.0
0.013243303124659345 -0.014397854647635221 0.0
0.012075056205061925 -0.037383780803411655 0.0
0.012875301178605162 -0.04282559041149586 0.0
0.011784982620255272 -0.03404403634747778 0.0
0.016481514626667863 -0.034259565879329414 0.0
0.01677243436968487 -0.030539677958370367 0.0
0.015858761991438458 -0.04071481717574667 0.0
0.01574876185836433 -0.04534556328360834 0.0
0.01713559212090765 -0.008746214679979016 0.0
0.01601859815394324 -0.04502310843581904 0.0
0.017450898280848257 -0.008381984553243776 0.0
0.010572465166404367 -0.008906157234384022 0.0
0.013791345512785056 -0.045702501338280445 0.0
0.017693401815996313 -0.0171636016907699 0.0
0.014718566028189144 -0.0460581188495119 0.0
0.01537006428379311 -0.04292276460559612 0.0
0.016634539767885363 -0.026042149549547387 0.0
0.014117952266342073 -0.045926638285355446 0.0
0.01448737836519351 -0.04615727386426105 0.0
0.021824610367537745 -0.02268986191000214 0.0
0.006340529909178951 -0.007214785403240394 0.0
0.018232525264970757 -0.04119691262846562 0.0
0.013593876838574957 -0.045981408205436655 0.0
0.016939907392707523 -0.04395467965629267 0.0
0.014348975356716523 -0.04622751631175752 0.0
0.01087676460722325 -0.007613837770740851 0.0
0.011537973865304023 -0.027291822528568942 0.0
0.011142563516537462 -0.022681849040665628 0.0
0.01187758796625711 -0.03311486384299934 0.0
0.012810492555858212 -0.042211441161452666 0.0
0.011652553250348398 -0.0292270513995427 0.0
0.012490347573878267 -0.03981165998802323 0.0
0.01576814949401672 -0.03756077893301431 0.0
0.016512682147229823 -0.021361602424524843 0.0
0.015991173664698485 -0.0343612656000643 0.0
0.015209283261504227 -0.04299366005163489 0.0
0.014686063937978947 -0.04574162483326723 0.0
0.013868551097519909 -0.046084042962231696 0.0
0.008552098524361318 -0.036142840813826 0.0
0.00781768209148269 -0.03265672847185606 0.0
0.01019031494091881 -0.04198685914931865 0.0
0.02262743089178329 -0.018921219770674638 0.0
0.020575820651391668 -0.035341449460149395 0.0
0.018330923592012473 -0.04144198473268662 0.0
0.020977473511432122 -0.03187002110331759 0.0
0.014961108773449718 -0.04454269095132847 0.0
0.012733291176391123 -0.04544419497863933 0.0
0.017885367408678302 -0.017807196180981665 0.0
0.01655795751283697 -0.02126977414159878 0.0
0.01119930395079461 -0.04363059985005739 0.0
0.0057808321733010155 -0.012894833458975703 0.0
0.023103534456379016 -0.012468086659617551 0.0
0.006237234476171864 -0.0237498973784384 0.0
0.014381354314504928 -0.04609287722488537 0.0
0.013973301223142567 -0.04605985100764719 0.0
0.014916292134863101 -0.04536632229878344 0.0
0.019219737743100245 -0.03821690367585352 0.0
0.02167662763491849 -0.027000983195845426 0.0
0.013957861047454181 -0.04610895410418364 0.0
0.0060862947793672555 -0.02138409731854026 0.0
0.0233282220333386 -0.012624652184985197 0.0
0.023195614989506442 -0.008226050028554897 0.0
0.0225364985694454 -0.018896493085157652 0.0
0.00889919022993219 -0.03693523820266797 0.0
0.009546184897694248 -0.03979057140285961 0.0
0.010641243722012396 -0.013158447473611987 0.0
0.005461836342114803 -0.01771057943717021 0.0
0.018522008383341483 -0.023350240673984515 0.0
0.009379193841069952 -0.0402220765885379 0.0
0.012339877434886282 -0.035603986452021334 0.0
0.012958458801094468 -0.04164360696571136 0.0
0.01213711434867323 -0.03201109679813473 0.0
0.005059113662128998 -0.01177921982931699 0.0
0.021889252594419758 -0.02736089016608209 0.0
0.013179068343321625 -0.043563936892735536 0.0
0.016955416884721606 -0.03882996088369078 0.0
0.01590251610603114 -0.04367058287903538 0.0
0.017474303954568855 -0.03568789143982225 0.0
0.018562313359865003 -0.02331904373544222 0.0
0.01571813771025951 -0.045570667076128 0.0
0.011911486356378589 -0.02435175800263293 0.0
0.019740616865187098 -0.03773058925853259 0.0
0.020617386017708995 -0.034629462338508575 0.0
0.017691127363039526 -0.04301478983955838 0.0
0.01968516542169944 -0.013302499833242071 0.0
0.01195481705631603 -0.0127876306315172 0.0
0.012422318351164915 -0.04515478119241552 0.0
0.015874976544790094 -0.043665657241443924 0.0
0.007481649797453311 -0.03411170389006266 0.0
0.0067431226002632886 -0.030364961935420074 0.0
0.015467434050139195 -0.04514930505689525 0.0
0.011628955085265652 -0.020465871853163276 0.0
0.0192386953591886 -0.028687157449354753 0.0
0.01624797337554801 -0.011543372566541739 0.0
0.016575060096836337 -0.04472763732648564 0.0
0.0200861692649581 -0.006810684879892673 0.0
0.010456425029040973 -0.04247793412090678 0.0
0.00618727512469789 -0.026381620206103944 0.0
0.015101070896412576 -0.04574311985389169 0.0
0.011195660445000723 -0.04382119675377988 0.0
0.01627781876024143 -0.041906126387583696 0.0
0.021456906209229645 -0.03194586558934589 0.0
0.014219939012491946 -0.04627382057168035 0.0
0.014705983343771377 -0.007591256229927715 0.0
0.013289196137774349 -0.045355254853651716 0.0
0.013956813791858487 -0.04471353141002138 0.0
0.013271168879613882 -0.0261174308072674 0.0
0.013546078932371971 -0.03766974242571238 0.0
0.013348531517846856 -0.030276145085302464 0.0
0.013626333779955705 -0.040453836529625226 0.0
0.0053803357702777495 -0.01832936352672821 0.0
0.015104638096187407 -0.007354623701878874 0.0
0.0178382347320759 -0.04286221514687649 0.0
0.014247129577246907 -0.046271420287820025 0.0
0.013825267108154104 -0.04609443878865434 0.0
0.0112517902255941 -0.010083574183590108 0.0
0.023133496359224567 -0.021406055114440572 0.0
0.01805642066231478 -0.028529975370000373 0.0
0.018043152125569627 -0.03226777154080488 0.0
0.01680807977265427 -0.03937878058635933 0.0
0.01118997982759145 -0.03595706509204638 0.0
0.011612514701461163 -0.039023384765718705 0.0
0.012757693148962777 -0.043910567124482686 0.0
0.006475039909146774 -0.030273993085885405 0.0
0.005884905674035403 -0.026117595508386167 0.0
0.011883646425740704 -0.04224824187370285 0.0
0.010202661530506682 -0.03316764532151128 0.0
0.010668439243710647 -0.036610690764689646 0.0
0.016422472178885837 -0.028270644436191955 0.0
0.01595718855730275 -0.01205686909805571 0.0
0.008471373660487298 -0.007610321730821485 0.0
0.019659093505456016 -0.006552597434224528 0.0
0.01491828728010917 -0.04042597470119531 0.0
0.015313028502536278 -0.03044341628900084 0.0
0.014645945460810085 -0.044633730101380026 0.0
0.015123593643492295 -0.03761798881592405 0.0
0.015446649023463233 -0.025928317328431948 0.0
0.022091234751189452 -0.025118944156940617 0.0
0.008582404625339523 -0.005818438601456397 0.0
0.018050798993202593 -0.03513906524710961 0.0
0.0169010533207784 -0.04130084946164697 0.0
0.01855676769258977 -0.03152862030573776 0.0
0.013390897091458541 -0.034201535054757995 0.0
0.013719129879721095 -0.04068418891703176 0.0
0.01332250930646035 -0.030410052818887548 0.0
0.015552784562656585 -0.04564694614684117 0.0
0.013760516458823202 -0.04292814769783962 0.0
0.010041424501333041 -0.03191061716480264 0.0
0.00966948923535089 -0.027890726858359974 0.0
0.016835198344835663 -0.04447203315655029 0.0
0.01463467553782269 -0.04608429631825044 0.0
0.01196460216268977 -0.019274130185382248 0.0
0.013305948653990566 -0.021270669170593202 0.0
0.013097630032003102 -0.01649341858276107 0.0
0.012563251281632791 -0.04429305472926499 0.0
0.013363764494379283 -0.0259867373716384 0.0
0.007504952729117302 -0.034171138910087225 0.0
0.008362821500117044 -0.03745526387404624 0.0
0.01430492215497562 -0.04611944676185407 0.0
0.021570642756393213 -0.03000972186036669 0.0
0.018952049968639785 -0.04026803455339413 0.0
0.011003382625441968 -0.04024299891097323 0.0
0.010440175330239703 -0.03737763936109066 0.0
0.009144980962116899 -0.02197638715676478 0.0
0.02395367744042553 -0.0059992587921848944 0.0
0.004951899118812843 -0.007842302411492244 0.0
0.015058336329381094 -0.01628436083477101 0.0
0.014839895358649114 -0.04531409273366837 0.0
0.013944471138126954 -0.04460342814893837 0.0
0.013640026636536797 -0.04511571732901392 0.0
0.012591455645709746 -0.007575521706519017 0.0
0.012855466734064933 -0.04561296367880407 0.0
0.023459551465840684 -0.01632874917544567 0.0
0.013543373566260033 -0.021301983981611976 0.0
0.018761341604876348 -0.011144395284789069 0.0
0.012974095448508778 -0.04493273474371838 0.0
0.013745375579807345 -0.03761292314925801 0.0
0.013925656577765724 -0.04305839480198293 0.0
0.013666054580940612 -0.034444487021263716 0.0
0.00925730927801622 -0.01961236851447996 0.0
0.00942791176349213 -0.027320758026010996 0.0
0.009124618605724503 -0.022881583969000693 0.0
0.011791823353956427 -0.04218141787344881 0.0
0.011196197445172702 -0.0397408668626602 0.0
0.01445800717324782 -0.045693415567639215 0.0
0.011399669527472144 -0.044365577961919624 0.0
0.019697881847912806 -0.018334215227170207 0.0
0.01991725000766467 -0.0260704012360823 0.0
0.018241754342728296 -0.03765078750782005 0.0
0.013813910224562426 -0.04532804089248377 0.0
0.0159892493511509 -0.04461770352789855 0.0
0.004749980977784381 -0.021475242887929166 0.0
0.008712354805913184 -0.017895363665041967 0.0
0.009149372858515201 -0.015399041153838567 0.0
0.01654438497280992 -0.023490778453891716 0.0
0.015682910604495226 -0.03891241072098719 0.0
0.01601851359748865 -0.03589832365951974 0.0
0.015138396875588727 -0.04379519938643579 0.0
0.017548705257984954 -0.04058023243557657 0.0
0.012933611328461953 -0.03906732202579345 0.0
0.013526383908103125 -0.043930979243944956 0.0
0.012745385759143774 -0.03604651106025612 0.0
0.023332845106630674 -0.010356572033151431 0.0
0.0141718197939236 -0.045825970870747725 0.0
0.016544493341000156 -0.036041230220543195 0.0
0.01677486418888543 -0.032834242264588066 0.0
0.015733445638439054 -0.04211751972066428 0.0
0.015285146020553964 -0.04168894855706719 0.0
0.010454713769674513 -0.04282242046744655 0.0
0.014511592531721134 -0.04615893067650685 0.0
0.01560622023955178 -0.03912570093474407 0.0
0.01623551403595883 -0.02811385684347486 0.0
0.016172223551607797 -0.018981918165405478 0.0
0.018994159507647365 -0.04007003736654392 0.0
0.0088700141112486 -0.010483412166639972 0.0
0.019282604671701516 -0.00993987937439401 0.0
0.021039556708111664 -0.03389023127397882 0.0
0.007893874247769278 -0.01729056786387899 0.0
0.013157960000217237 -0.04562940548069286 0.0
0.019517386350920523 -0.015077655716298917 0.0
0.01893869685013748 -0.0153797474799605 0.0
0.015003626019578184 -0.04382016721070503 0.0