<VTKFile type="UnstructuredGrid"  version="0.1">
<UnstructuredGrid>
<Piece NumberOfPoints="713" NumberOfCells="1304">
<Points>
<DataArray type="Float64" NumberOfComponents="3" format="ascii">
0.0 0.0 0.0
10.0 0.0 0.0
10.0 2.0 0.0
5.0 2.0 0.0
0.0 2.0 0.0
0.199999999999856 0.0 0.0
0.3999999999996677 0.0 0.0
0.5999999999994683 0.0 0.0
0.7999999999993286 0.0 0.0
0.9999999999991888 0.0 0.0
1.199999999999033 0.0 0.0
1.399999999998576 0.0 0.0
1.599999999997992 0.0 0.0
1.799999999997408 0.0 0.0
1.999999999996825 0.0 0.0
2.199999999996241 0.0 0.0
2.399999999995657 0.0 0.0
2.599999999995073 0.0 0.0
2.79999999999449 0.0 0.0
2.999999999993906 0.0 0.0
3.199999999993322 0.0 0.0
3.399999999992738 0.0 0.0
3.599999999992154 0.0 0.0
3.799999999991571 0.0 0.0
3.999999999991022 0.0 0.0
4.199999999991187 0.0 0.0
4.399999999991491 0.0 0.0
4.599999999991795 0.0 0.0
4.799999999992099 0.0 0.0
4.999999999992403 0.0 0.0
5.199999999992706 0.0 0.0
5.39999999999301 0.0 0.0
5.599999999993313 0.0 0.0
5.799999999993618 0.0 0.0
5.999999999993922 0.0 0.0
6.199999999994227 0.0 0.0
6.39999999999453 0.0 0.0
6.599999999994833 0.0 0.0
6.799999999995138 0.0 0.0
6.999999999995442 0.0 0.0
7.199999999995747 0.0 0.0
7.39999999999605 0.0 0.0
7.599999999996353 0.0 0.0
7.799999999996658 0.0 0.0
7.999999999996962 0.0 0.0
8.199999999997265 0.0 0.0
8.399999999997569 0.0 0.0
8.599999999997873 0.0 0.0
8.799999999998176 0.0 0.0
8.99999999999848 0.0 0.0
9.199999999998786 0.0 0.0
9.399999999999089 0.0 0.0
9.599999999999392 0.0 0.0
9.799999999999697 0.0 0.0
10.0 0.1999999999996293 0.0
10.0 0.3999999999991157 0.0
10.0 0.5999999999985328 0.0
10.0 0.7999999999979498 0.0
10.0 0.9999999999973885 0.0
10.0 1.199999999997894 0.0
10.0 1.39999999999842 0.0
10.0 1.599999999998947 0.0
10.0 1.799999999999474 0.0
9.799999999999999 2.0 0.0
9.6 2.0 0.0
9.399999999999999 2.0 0.0
9.2 2.0 0.0
8.999999999999998 2.0 0.0
8.799999999999999 2.0 0.0
8.599999999999998 2.0 0.0
8.399999999999999 2.0 0.0
8.2 2.0 0.0
7.999999999999998 2.0 0.0
7.799999999999999 2.0 0.0
7.599999999999999 2.0 0.0
7.399999999999999 2.0 0.0
7.199999999999999 2.0 0.0
7.0 2.0 0.0
6.799999999999999 2.0 0.0
6.6 2.0 0.0
6.399999999999999 2.0 0.0
6.199999999999999 2.0 0.0
5.999999999999999 2.0 0.0
5.8 2.0 0.0
5.6 2.0 0.0
5.399999999999999 2.0 0.0
5.199999999999999 2.0 0.0
4.8 2.0 0.0
4.6 2.0 0.0
4.399999999999999 2.0 0.0
4.199999999999998 2.0 0.0
3.999999999999999 2.0 0.0
3.799999999999999 2.0 0.0
3.599999999999999 2.0 0.0
3.399999999999999 2.0 0.0
3.199999999999998 2.0 0.0
2.999999999999999 2.0 0.0
2.799999999999999 2.0 0.0
2.599999999999999 2.0 0.0
2.399999999999999 2.0 0.0
2.199999999999999 2.0 0.0
2.0 2.0 0.0
1.799999999999999 2.0 0.0
1.599999999999999 2.0 0.0
1.399999999999999 2.0 0.0
1.199999999999999 2.0 0.0
0.9999999999999991 2.0 0.0
0.7999999999999998 2.0 0.0
0.5999999999999996 2.0 0.0
0.3999999999999995 2.0 0.0
0.1999999999999993 2.0 0.0
0.0 1.799999999999167 0.0
0.0 1.6 0.0
0.0 1.400000000001387 0.0
0.0 1.200000000002774 0.0
0.0 1.000000000004117 0.0
0.0 0.8000000000033287 0.0
0.0 0.6000000000024965 0.0
0.0 0.4000000000016644 0.0
0.0 0.200000000000832 0.0
1.499207686858938 0.9671416246672391 0.0
2.690335006295381 0.9619521672166851 0.0
3.892537609238439 1.007271393615351 0.0
8.916602958236062 0.9848120741100651 0.0
7.714518201951718 1.024234589865042 0.0
6.514518201951581 1.024234589865268 0.0
5.299999999999998 1.000000000000349 0.0
0.7620577975594133 1.201991596673393 0.0
4.61755859746166 1.240410629378135 0.0
2.099999999996533 0.6749999999988996 0.0
3.289480163184942 0.6802242156869155 0.0
8.299999999999976 1.325000000000064 0.0
7.110519836808121 1.319775784312006 0.0
5.893184537067197 1.292851873188582 0.0
3.268568008578649 1.341967835735878 0.0
2.118368267083699 1.321829331075689 0.0
5.930896443153832 0.6493414313150682 0.0
7.106926174231782 0.6329785805444448 0.0
8.306926174233002 0.6329785805444098 0.0
4.427960725065653 0.6389803625370323 0.0
0.9828791719046732 0.6520555711814596 0.0
9.383333333333349 0.6166666666667164 0.0
9.383333333333326 1.383333333333367 0.0
4.974443803660211 0.5526668589022862 0.0
1.248084267804327 1.464555585366204 0.0
4.139486343919472 1.468449088519687 0.0
5.077806736162063 1.478342020848787 0.0
1.629462398503482 0.5098631373669138 0.0
2.579462070540726 0.5133714280880515 0.0
3.770778974032556 0.5099482598296803 0.0
8.764748922637567 1.526880805960684 0.0
7.820537929455645 1.486628571911716 0.0
6.632254923791462 1.492045881343967 0.0
2.796478414430566 1.477149214423874 0.0
6.403521585563812 0.5228507855762514 0.0
7.603521585564883 0.5228507855756581 0.0
8.783559188644787 0.5066440811355862 0.0
0.5060338924245764 0.5082251307884346 0.0
5.451633334958382 0.4799315318847731 0.0
1.683269995544083 1.547372422998862 0.0
0.448590368789599 1.551409631210402 0.0
5.545526974704655 1.582008455135239 0.0
3.666056976948354 1.56999765613834 0.0
0.4385739326402744 0.9352922270094057 0.0
9.58170539854767 0.9922137522194456 0.0
4.93200119575972 0.9247090920592975 0.0
6.20679636316332 1.642443126922768 0.0
7.418963044745086 1.587405313446662 0.0
2.98103695524982 0.412594686552066 0.0
2.420975602092416 1.592770352831584 0.0
7.97902439790374 0.4072296471687943 0.0
6.779024397902082 0.4072296471687297 0.0
1.130444757308209 0.9859238872709168 0.0
0.8901814758011342 1.60566856081121 0.0
4.263670373274499 0.9915754392410991 0.0
3.096698167273431 1.009056907826855 0.0
6.088506433998166 0.9857489435828969 0.0
1.902225037409936 1.003483800311746 0.0
7.288506433998439 0.9857489435828686 0.0
8.498964973312972 1.005823551167602 0.0
2.307571737417198 1.008136792450924 0.0
8.100397971125554 1.000138280273345 0.0
6.900397971125225 1.000138280273792 0.0
3.499307350770321 0.9996496628144824 0.0
5.703656022566558 0.9885479657552226 0.0
4.719420624357892 1.622286409566126 0.0
4.099803549896894 0.3600308081356619 0.0
1.286100671532495 0.3637431910670685 0.0
9.120549139677793 1.655065205594329 0.0
9.11726214008418 0.3400668903113251 0.0
4.642568097328033 0.3514924793220939 0.0
9.630437629189052 0.3309104953729904 0.0
9.674493769554315 1.668196579944218 0.0
1.936458797611609 0.3337070483410596 0.0
3.461817573918652 0.3447876019040473 0.0
8.440152788772068 1.649667667046397 0.0
6.973083089482548 1.643748677366674 0.0
3.126874515006838 1.659115470008545 0.0
6.070607878384977 0.3410183041038941 0.0
7.255014454789089 0.32792256737713 0.0
8.462493615948901 0.3368393217476116 0.0
9.236261261261264 0.9276047786917867 0.0
5.885444386845415 1.667751020273455 0.0
0.8062340689595878 0.3261579034781319 0.0
2.29463843780282 0.308358158429197 0.0
8.10536156219338 1.691641841570632 0.0
4.041916759198581 0.7211683801597477 0.0
1.324377365289917 0.710525897087282 0.0
9.023167917315867 1.292262965009952 0.0
2.044244009166302 1.693807225416931 0.0
0.7675765545556328 0.8969765944392112 0.0
2.86965991063896 0.7069213925303978 0.0
6.330340089355722 1.293078607468788 0.0
7.530340089355831 1.29307860746885 0.0
2.509347777214458 1.27231292939881 0.0
7.890652222779963 0.7276870706009825 0.0
6.690652222780154 0.7276870706013264 0.0
4.380959112578968 1.65866292149053 0.0
0.3278422400819535 1.233362752678148 0.0
5.754468991464942 0.3469215055361071 0.0
9.69195804401614 0.7000195364707393 0.0
9.691250997975434 1.303243780084337 0.0
5.54324561063747 1.237401556904767 0.0
9.044596057577811 0.6843248705785732 0.0
5.208929198448351 0.3519433027337513 0.0
3.708880196230617 1.249762029554333 0.0
1.713349558540635 1.234899745098077 0.0
4.586522821995393 0.9261740906803194 0.0
5.241145838821565 0.7007005766013242 0.0
1.434457446926135 1.701926055218157 0.0
0.2821921707428039 0.3393165318407161 0.0
3.42846431357046 1.714274134409306 0.0
5.26283485467567 1.710141275531951 0.0
3.966530105129177 1.718376080180638 0.0
4.891301048299285 1.259923533724591 0.0
0.2787500712946937 0.6906723798523376 0.0
1.822166578929051 0.7301892210727335 0.0
8.593276160688786 1.287322908694633 0.0
2.386017956680413 0.7288816957021155 0.0
3.576911792171353 0.7225526638483954 0.0
8.013982043315597 1.271118304297217 0.0
6.82303669320588 1.277631295759485 0.0
2.891837633696712 1.215141906356511 0.0
8.708162366297856 0.7848580936429009 0.0
7.496736072543097 0.7897651325976158 0.0
6.296736072542775 0.7897651325982009 0.0
5.523181420933933 0.7588744249744506 0.0
4.725538117155759 0.6529070682798582 0.0
2.736307197014292 0.273961667653487 0.0
7.663692802980817 1.726038332346062 0.0
6.446842959287713 1.783714797320288 0.0
1.126188383272983 1.743715177525389 0.0
2.64757240694847 1.787239829472812 0.0
6.546646507559373 0.2589894635657943 0.0
7.746646507561152 0.2589894635657218 0.0
4.079302268890254 1.221431431691139 0.0
4.433746883463333 0.2983726043497702 0.0
1.032697650548726 1.318076986199429 0.0
1.309492735411376 1.208980965369829 0.0
3.896105387998365 0.2579746081881307 0.0
9.378751775005455 1.725996478164223 0.0
9.3965279828929 0.2649862374471925 0.0
1.515757555362918 0.2603060454608533 0.0
4.959097093232828 1.726144293543605 0.0
4.912501341257775 0.2529154558175828 0.0
4.342421824442713 1.285376618065631 0.0
7.023506283123107 0.293611963231815 0.0
8.215829626877609 0.2682061590942965 0.0
5.28145265730745 1.291130016052329 0.0
8.693992162747364 1.744100892812201 0.0
0.6256567126095668 1.775064851453201 0.0
0.2724967459749605 1.756941612685287 0.0
8.90781713264278 0.2741674349222226 0.0
7.184202236567151 1.709454269177068 0.0
3.212962614055919 0.2641656831057426 0.0
0.6761590188374282 0.6746441670621973 0.0
1.020489328989316 0.2487299689497893 0.0
1.485017749467193 1.402133856149482 0.0
6.734223224917944 1.790518105434539 0.0
2.657549589911705 0.7636227781082678 0.0
6.542590471647475 1.237213715285722 0.0
7.742745187066703 1.235538225115726 0.0
0.5794341726414672 0.2480285055479751 0.0
1.842901067642841 1.760146518280044 0.0
3.84389577648662 0.7524680119172447 0.0
3.061589173628368 1.407936939342627 0.0
6.144447294584154 0.5911674363009913 0.0
7.344447294585433 0.5911674362995804 0.0
8.544447294586682 0.5911674362982269 0.0
5.491507940982565 0.1734458797927824 0.0
[...]
<PointData Vectors="fields">
<DataArray type="Float64" Name="U" NumberOfComponents="3" format="ascii">
0.0 0.0 0.0
0.03002332937274004 0.0 0.0
0.0024980676945444828 -0.005550003247092048 0.0
0.014856317813170315 -0.04823212033005091 0.0
0.027563673674337656 -0.005249426049341929 0.0
0.00032215006531839284 -0.005759517735363524 0.0
0.0009484933386771808 -0.009465400515582634 0.0
0.0015132957059663795 -0.012747118502390367 0.0
0.0019877293751380965 -0.015629790274002124 0.0
0.002405166339995254 -0.01838063129701359 0.0
0.002809526662187322 -0.02102249789300204 0.0
0.0032173225626244023 -0.023564358626614476 0.0
0.003666111123301763 -0.02602028798682941 0.0
0.004129709120930224 -0.02839132403602909 0.0
0.004629611072164098 -0.030651303377611364 0.0
0.005153217484104549 -0.03279949730553937 0.0
0.005722024529356403 -0.03483800059426719 0.0
0.006298835612471181 -0.036749712957655285 0.0
0.006932749110275404 -0.038535194559336156 0.0
0.007563221595292157 -0.040187032994782386 0.0
0.00824507540901643 -0.04169861325750936 0.0
0.008930365918977858 -0.043056828216096514 0.0
0.009653468810951306 -0.044271692979468154 0.0
0.01038552478907397 -0.045302113023748675 0.0
0.011127506368418907 -0.04622455080070515 0.0
0.011901277250542512 -0.046963131548847355 0.0
0.012667054842381018 -0.04753151965010395 0.0
0.01345482411350413 -0.04794024873441951 0.0
0.014227787845786422 -0.048171285862998826 0.0
0.015030726607466946 -0.0482420540715218 0.0
0.01580891993604513 -0.048144750990523746 0.0
0.01658426317137487 -0.047875597330506975 0.0
0.017353540594431296 -0.04744377065774116 0.0
0.018110205713667792 -0.046844427367736294 0.0
0.01884312087077611 -0.046091018770988396 0.0
0.019588305973954157 -0.0451904901145488 0.0
0.02029022376350793 -0.04409354978799012 0.0
0.02099170842052398 -0.04289798418805987 0.0
0.021658470539577285 -0.04155139088131503 0.0
0.022322141963849726 -0.04004156843033032 0.0
0.02294674096608436 -0.03839960827696638 0.0
0.023547952665392197 -0.03663334926905086 0.0
0.024106204196276994 -0.03471282065190805 0.0
0.02465250003712779 -0.03271750985380957 0.0
0.0251573066896175 -0.030603462322565098 0.0
0.02564454414309866 -0.028373169996745645 0.0
0.026093990284903452 -0.026035398323201942 0.0
0.02652598895493833 -0.02361490041678436 0.0
0.0269219432038641 -0.021102228255823786 0.0
0.027327901969457162 -0.01849311276124305 0.0
0.027726735382742743 -0.015790605651852866 0.0
0.028170940865896582 -0.012935597630772587 0.0
0.02866341787543689 -0.009837323854069017 0.0
0.02942665453990604 -0.006149903589761944 0.0
0.025358284026531494 -0.0021906544149229313 0.0
0.022348701095811038 -0.00339142531155743 0.0
0.01961511908365568 -0.004155316659378405 0.0
0.017107330810191976 -0.0047327318342266994 0.0
0.014673580872977035 -0.005095058620220165 0.0
0.012284151182269894 -0.005330661617306074 0.0
0.00989646768502069 -0.005472983085704749 0.0
0.007472641448232661 -0.0055366812132158615 0.0
0.005005433814496804 -0.005549756003100572 0.0
0.0024962653977254508 -0.008066570532073884 0.0
0.0025032632388080813 -0.010615694345688353 0.0
0.0025506143510669746 -0.013204033284012293 0.0
0.0026595606637264974 -0.01581909986094132 0.0
0.002839568146291 -0.018423648969214994 0.0
0.003083779556043117 -0.020983343218031414 0.0
0.003394295166939708 -0.02350930917401592 0.0
0.003757027315420823 -0.02594578777798697 0.0
0.004172550215827769 -0.02829223287670926 0.0
0.004644849624787912 -0.030545847047981065 0.0
0.0051375346549190175 -0.03268338161104063 0.0
0.005690786629056972 -0.03470967886161463 0.0
0.0062493517611591845 -0.036612907063720335 0.0
0.006860382981878541 -0.03838705983414215 0.0
0.007489267943716009 -0.040032880163544005 0.0
0.008143879473452277 -0.04153891291342236 0.0
0.008807160540610003 -0.04286901644450479 0.0
0.009508558106612611 -0.044115684204846024 0.0
0.010230181637001418 -0.0451729941203147 0.0
0.010952109348761774 -0.046082423608395574 0.0
0.011710399967064028 -0.04684366090161987 0.0
0.012496729822667542 -0.04743664608483884 0.0
0.013259813482396991 -0.04786579095034406 0.0
0.014061786164290414 -0.04813398952590512 0.0
0.015673212159522592 -0.04814934206748308 0.0
0.016457951280435687 -0.04791585850825065 0.0
0.017238803446984217 -0.0475168508350214 0.0
0.018038917481705795 -0.04696055410373608 0.0
0.018829968264866735 -0.04621591656351029 0.0
0.019614052083148037 -0.04531231993492815 0.0
0.020342278332323528 -0.04425849934193544 0.0
0.021071920628232356 -0.04304635003249142 0.0
0.021772011907581153 -0.041690679265579046 0.0
0.02245681554950858 -0.040182879679177 0.0
0.02309323957662099 -0.038500114032601056 0.0
0.023721963400730996 -0.03673744426094083 0.0
0.024304145599390512 -0.03481089848368684 0.0
0.02485163322128327 -0.032760261394931954 0.0
0.025381273249835187 -0.03059090332555022 0.0
0.025861505612365 -0.02830920893956552 0.0
0.026282175636879533 -0.02593206645420991 0.0
0.026668560014501498 -0.023453776754562502 0.0
0.02698112587353931 -0.020904211491762532 0.0
0.027230567777615743 -0.018291140772430967 0.0
0.027403248562716198 -0.01565412963533215 0.0
0.02750587537077989 -0.01300425124392556 0.0
0.027555968379895615 -0.010383351599176745 0.0
0.02756769144073369 -0.007796449000587578 0.0
0.02502283456567904 -0.005250817848082489 0.0
0.022522083937072022 -0.0052384383597609665 0.0
0.020070480511583853 -0.00517881858859023 0.0
0.0176466949885268 -0.005039836487679185 0.0
0.015232887439203707 -0.004782016289558934 0.0
0.01277159890353332 -0.004415684403249895 0.0
0.010231156710204855 -0.0038331119431048544 0.0
0.007483455464344543 -0.003034138080243774 0.0
0.004218274883792975 -0.0017090247592197372 0.0
0.014695925239388384 -0.024935738853801636 0.0
0.014692754951662728 -0.037870988420557826 0.0
0.015004670215235742 -0.046135770199492096 0.0
0.014940851194419305 -0.019653939600544956 0.0
0.014671810492532435 -0.033846763689271225 0.0
0.014771897404822354 -0.043787653532777304 0.0
0.014930490175794012 -0.048413526228290774 0.0
0.017625205933227497 -0.015172680307469369 0.0
0.015286144216617193 -0.048327676901346234 0.0
0.0118192944048285 -0.03196165186032779 0.0
0.012985822789790264 -0.04263242965021165 0.0
0.011425108192448082 -0.027332837061127144 0.0
0.012485578965674793 -0.039418818512752876 0.0
0.013903099883600596 -0.04685989051367322 0.0
0.017173953552803427 -0.04248386055668418 0.0
0.018152285074738952 -0.032129656261796605 0.0
0.01617801252631712 -0.04670465057916644 0.0
0.01767735237654041 -0.03945498230592788 0.0
0.01879045094801751 -0.027311328294804288 0.0
0.014201555374530104 -0.04794254085006072 0.0
0.010959296636686763 -0.018219237926173786 0.0
0.019345299849953358 -0.013246108877638111 0.0
0.010137166945178631 -0.013412889096997654 0.0
0.014935958742267847 -0.04854919650579477 0.0
0.02043521424509302 -0.021646927613190134 0.0
0.016491220140884055 -0.04704946879756211 0.0
0.014742727813789241 -0.04851135954053348 0.0
0.009647320018528374 -0.02653015165333386 0.0
0.0108375153961038 -0.03678429319347628 0.0
0.012723857542587215 -0.04545885310681772 0.0
0.008810267991009254 -0.021550461172319454 0.0
0.01023761558510859 -0.03266752923904425 0.0
0.011915482902195872 -0.04294298920565182 0.0
0.018772800489920916 -0.038733505166970474 0.0
0.01743434258160091 -0.04436485439487722 0.0
0.019195977970452197 -0.03490733780786974 0.0
0.020571771591826875 -0.02142142268063249 0.0
0.009067658324030942 -0.011363233599130584 0.0
0.01587840296512826 -0.04806189317322458 0.0
0.020949197656807556 -0.027083930262344513 0.0
0.02189947628028282 -0.010996454897380138 0.0
0.01365118223507656 -0.04783181173471238 0.0
0.017850545392702376 -0.04487681144998383 0.0
0.014509231047093167 -0.010589609759519322 0.0
0.014706715279747064 -0.01058028025097408 0.0
0.014930787748006012 -0.04863597741051576 0.0
0.011936768725083334 -0.045353789502786734 0.0
0.009898467422501942 -0.036626539641139266 0.0
0.010691224581536977 -0.040248530426230715 0.0
0.020361838938991756 -0.03521099353859973 0.0
0.020827372343254824 -0.03098382320612966 0.0
0.018801099096955234 -0.041908053150418303 0.0
0.014966803384362947 -0.020173703826552102 0.0
0.022369958955863294 -0.016895527355456644 0.0
0.014943795179065713 -0.04755047309138522 0.0
0.015061788189573279 -0.04126171083413812 0.0
0.014974962980880219 -0.04607454946350544 0.0
0.015061400596015868 -0.029762925470622623 0.0
0.015018063934487607 -0.03792200358138355 0.0
0.014778648708935003 -0.024983701462343716 0.0
0.015085412098283395 -0.03417281119046502 0.0
0.014877603170183655 -0.029690016731154754 0.0
0.014902401707141057 -0.041126735985894745 0.0
0.01498580389436439 -0.04404045655584106 0.0
0.014946115087012896 -0.04753329964581617 0.0
0.015573189330727547 -0.048341555854554845 0.0
0.012802337091255915 -0.046849176897652875 0.0
0.007561676312176745 -0.02224154559653168 0.0
0.007021748981649308 -0.016902148755302063 0.0
0.022926982050356717 -0.01700175469978341 0.0
0.014110477205105455 -0.04823753037715368 0.0
0.023213656383880264 -0.00940750188661681 0.0
0.006648776976519092 -0.009645980696917873 0.0
0.008111821680065301 -0.030086494778438527 0.0
0.01122792321947586 -0.04366730910994714 0.0
0.007743546440905363 -0.0255780243364892 0.0
0.010261749180521237 -0.040434680386414804 0.0
0.019546241458579354 -0.0413483255361993 0.0
0.017640202300408483 -0.04600441862876853 0.0
0.020328518095436218 -0.03809641639395445 0.0
0.022259326812831933 -0.025410252586015245 0.0
0.015539689109465165 -0.015347940203809557 0.0
0.012603114378872038 -0.04675471324175109 0.0
0.0066211377799829645 -0.01579271873840083 0.0
0.008483617468177898 -0.03392815586731247 0.0
0.007757504193130289 -0.02949683645340917 0.0
0.013975318220577989 -0.04675052845120739 0.0
0.011751150210561263 -0.02274272609947852 0.0
0.01135032874117477 -0.018218236748649655 0.0
0.02200212728229599 -0.031223556929607797 0.0
0.013987594628276893 -0.015228195106396593 0.0
0.012764875289777117 -0.0394230980211148 0.0
0.013441736304744337 -0.044837952627330084 0.0
0.01233335949766985 -0.035655013319916246 0.0
0.017375941371954716 -0.03614877975052807 0.0
0.017535785425757833 -0.03199659348367072 0.0
0.016607878595889383 -0.04261841985886204 0.0
0.016495315412818002 -0.04770849301485993 0.0
0.018087575930450975 -0.009264954718989993 0.0
0.016861071878013622 -0.04721298065805555 0.0
0.018242999170041057 -0.008760359880734703 0.0
0.011029303583529947 -0.009310799734352507 0.0
0.014410424784319866 -0.0479413386603114 0.0
0.018500455958015596 -0.01797302125216778 0.0
0.015515363488204457 -0.04836729349693692 0.0
0.016187351014929293 -0.0452118300944238 0.0
0.01754544375901433 -0.02751869317272673 0.0
0.014848597670672885 -0.04829909929167685 0.0
0.015235666521418296 -0.04846234201029483 0.0
0.023010050351210308 -0.023983377024317357 0.0
0.006704699288788691 -0.007629866481236453 0.0
0.019203266822410525 -0.04340658109192112 0.0
0.014144557180829841 -0.048271301003540656 0.0
0.017795595595795084 -0.04627964854320932 0.0
0.015026571749733358 -0.04857831948414936 0.0
0.011496330841054583 -0.008057830775562021 0.0
0.012196187917560115 -0.02883606490184147 0.0
0.011641341291636522 -0.023764772524703996 0.0
0.012558796440291939 -0.03495265798290523 0.0
0.013527392958997816 -0.044472624229809916 0.0
0.012187249798138813 -0.030622252496787225 0.0
0.01306139741669748 -0.04167107791610958 0.0
0.016627808517675084 -0.039602882804695864 0.0
0.017263268392281633 -0.022380349973826805 0.0
0.016722275537308068 -0.035986547008845765 0.0
0.01594237677731898 -0.045019947577476876 0.0
0.015426513931634439 -0.047988567354350746 0.0
0.014613420213375956 -0.04844889585627608 0.0
0.009083019356422951 -0.038129509824254774 0.0
0.008186956797537354 -0.03420739826968591 0.0
0.010595002695496153 -0.04396811315777324 0.0
0.02386457305537361 -0.020005854627564913 0.0
0.02166601738206956 -0.03728355095164131 0.0
0.019230677336738923 -0.04339725592373163 0.0
0.021929818277782162 -0.03338897521699155 0.0
0.015733704196207204 -0.046893669760749504 0.0
0.013470332717070354 -0.047812155331532914 0.0
0.01887142841814035 -0.018829324672094264 0.0
0.017471077469520178 -0.022485172098226924 0.0
0.011872039509463582 -0.045951517550953766 0.0
0.006012088849846499 -0.01349552211413502 0.0
0.024178551720153416 -0.013045651583246257 0.0
0.006612730674027572 -0.02510523713063387 0.0
0.014991727908927638 -0.048427288745028794 0.0
0.014754356975860616 -0.048407349917655766 0.0
0.01566003320984736 -0.047736392794272935 0.0
0.020115842614805916 -0.04001526858564156 0.0
0.02266851373731385 -0.02829540180768355 0.0
0.014587883277374723 -0.048403090806757205 0.0
0.006346140893512057 -0.022403223176243173 0.0
0.024610218293143422 -0.013359987341440886 0.0
0.02447179966702177 -0.00872041823667525 0.0
0.023584301228394725 -0.01979386900441507 0.0
0.009312875907958542 -0.03867464547072085 0.0
0.010129211194015638 -0.04194750888132684 0.0
0.011245644395487026 -0.013917986750968458 0.0
0.005778931734180152 -0.01873026733433412 0.0
0.019533212124811416 -0.02468015276127362 0.0
0.00977846246075197 -0.04211366425877057 0.0
0.013042556987015107 -0.03755940853737164 0.0
0.013543092344221583 -0.04359016876581903 0.0
0.012697972278997712 -0.03353258348878159 0.0
0.005348390576627434 -0.012459448270411441 0.0
0.023062543992203102 -0.028906715898082202 0.0
0.013908008376564116 -0.04588127403657548 0.0
0.01787205215527447 -0.04093030874140801 0.0
0.01669611009766522 -0.04574665268739383 0.0
0.01827382063091152 -0.03737138613253578 0.0
0.01941133704765811 -0.02443482591156986 0.0
0.01657195309337323 -0.047823803126805994 0.0
0.012585394947733594 -0.025738410722820522 0.0
0.020792926095502116 -0.039782805807329714 0.0
0.021556615082908227 -0.03627126855347794 0.0
0.018591214814586404 -0.04506168464969838 0.0
0.020770390792740612 -0.014074250145566153 0.0
0.01247932147904834 -0.013380946053788052 0.0
0.012895593251445403 -0.04734894127472945 0.0
0.016700314102883976 -0.045984068096838165 0.0
0.00795814299420023 -0.03600181485505222 0.0
0.00705909717171243 -0.03181242573984751 0.0
0.01626513533940676 -0.047342782244760004 0.0
0.012146574279930808 -0.021439674527056862 0.0
0.02027367796737427 -0.030302170000242906 0.0
0.017152228017017306 -0.012215473588586193 0.0
0.017378910981117195 -0.04707497408987353 0.0
0.021195016988702294 -0.007227151367253359 0.0
0.011091735635733214 -0.044753837599982936 0.0
0.006570357953070177 -0.027878617248377913 0.0
0.015814254789577986 -0.048111806949643225 0.0
0.011612294609720998 -0.04591325566094247 0.0
0.017148573784990566 -0.044148989587090015 0.0
0.02259299982820232 -0.03372573495053527 0.0
0.014907941516388561 -0.04860368832418917 0.0
0.015530306078851051 -0.008042365883993544 0.0
0.013852124043465626 -0.04755914235475181 0.0
0.014600014465829782 -0.04685769353445918 0.0
0.013873583769413634 -0.027367241954691146 0.0
0.01417302084875792 -0.03943536868855773 0.0
0.014097210196106574 -0.03197352517403714 0.0
0.014380352900135568 -0.042633183081555524 0.0
0.005599644211416131 -0.019197988720005964 0.0
0.01577916362296121 -0.007682091041674008 0.0
0.018763733597713307 -0.04514368395159758 0.0
0.014982583929530335 -0.04860890353728981 0.0
0.014419099244836989 -0.04839112685885631 0.0
0.011890868223284168 -0.01066824566998304 0.0
0.02420765576624104 -0.022428685648060963 0.0
0.01887822229051877 -0.029895021956964214 0.0
0.019012981884876337 -0.034062023537249575 0.0
0.017595358207482217 -0.041222674938408574 0.0
0.011712599049684035 -0.037650619247598265 0.0
0.012280984363723905 -0.04114036826506538 0.0
0.01329820902791323 -0.04599566448476191 0.0
0.006889289960676786 -0.031973744435899565 0.0
0.00614875305526062 -0.027366342889948898 0.0
0.012390413019680543 -0.04423193175228142 0.0
0.010680129809369106 -0.034740224709169557 0.0
0.01129568824438415 -0.03861621952354417 0.0
0.017319720941025313 -0.029864806525329517 0.0
0.016676034710024917 -0.012613449997292124 0.0
0.00882829858046917 -0.007953557533252947 0.0
0.020561543223108852 -0.006844782482277399 0.0
0.01573190579712231 -0.04260183786882679 0.0
0.016154914138971115 -0.032148527161957596 0.0
0.015355320140756752 -0.046773453734606986 0.0
0.015821825351819446 -0.03938189408651413 0.0
0.016148604550066115 -0.02716987607529084 0.0
0.023282975784183327 -0.026545046643767226 0.0
0.009075696382814125 -0.006155323295180605 0.0
0.01901932086275863 -0.03706934568441719 0.0
0.017715701422494134 -0.04323899165363785 0.0
0.019399844139645774 -0.033030609486373964 0.0
0.014141945196044151 -0.03608979677282527 0.0
0.01435221462637016 -0.04258263376422652 0.0
0.013933026975547038 -0.031859948984408644 0.0
0.016255801119127007 -0.04800588531251414 0.0
0.014511360027660597 -0.045219550373746295 0.0
0.010634924431667282 -0.03369098342746401 0.0
0.010112221183257972 -0.029223367267221613 0.0
0.01772266801781217 -0.046621902274310366 0.0
0.015319999388558119 -0.04844802488528141 0.0
0.012639324067474426 -0.020379432075583296 0.0
0.014050993707500063 -0.02248709051955504 0.0
0.013679711652781711 -0.01726960761521596 0.0
0.013278053725981972 -0.04663605564529414 0.0
0.014111949789936752 -0.02746133012302766 0.0
0.007860940450508143 -0.0357899009924203 0.0
0.008887752434429626 -0.03950468402976404 0.0
0.015019073967133041 -0.04848693060838658 0.0
0.02255189487851078 -0.03144448269569691 0.0
0.019863212843045267 -0.042164437877535904 0.0
0.01164708232627164 -0.042418145739201996 0.0
0.010924966099548229 -0.03913313124196696 0.0
0.00967148470132685 -0.023233535211576447 0.0
0.025067504212098125 -0.006270136978455956 0.0
0.0051412769868355145 -0.008197917781098367 0.0
0.015897473038946126 -0.017221098767663326 0.0
0.01558181563605763 -0.04751601956737021 0.0
0.014690427749081043 -0.04695727382079332 0.0
0.014377715741607459 -0.047482189059101065 0.0
0.013144135939349821 -0.007914498866538472 0.0
0.013346635057834684 -0.04785653870529243 0.0
0.02474568882745199 -0.01726916993940429 0.0
0.014152173517960737 -0.02231733316249202 0.0
0.019798430907238825 -0.011796531829750705 0.0
0.01370244815656217 -0.04729388789428169 0.0
0.014510358070596405 -0.03965975561064072 0.0
0.014567952564659101 -0.045084081974914 0.0
0.01429631086001492 -0.0360728093666953 0.0
0.009786818139563731 -0.020737798940031946 0.0
0.009980594923394797 -0.02886713529660131 0.0
0.009530381783205881 -0.02397409085652774 0.0
0.012471194639247552 -0.04444274166309837 0.0
0.011700840604722063 -0.041600139804338084 0.0
0.015189043793559398 -0.04806847876855888 0.0
0.012090140188267122 -0.04671125647662193 0.0
0.02077896131505248 -0.01938592431554356 0.0
0.02082793900820657 -0.027319847341081664 0.0
0.01908605827702022 -0.039421015851300895 0.0
0.01443991853197777 -0.04752721131164744 0.0
0.016813691545206937 -0.04676876050108507 0.0
0.00503704290242818 -0.022705492503925454 0.0
0.00908900440894413 -0.01874203447751901 0.0
0.00954316656727449 -0.016122042466426456 0.0
0.01729696468952323 -0.024614642086901336 0.0
0.01653724324235027 -0.041016905827988594 0.0
0.016753052993316236 -0.03758949830576391 0.0
0.015877078863151834 -0.04587385628130789 0.0
0.018490886652022597 -0.04276158749026823 0.0
0.0136597025719962 -0.041183482941119724 0.0
0.014132787839055935 -0.04601481039471664 0.0
0.013336831854394245 -0.03774331745824648 0.0
0.024615926787853296 -0.01096726681297082 0.0
0.014844839544003126 -0.048077947064456304 0.0
0.01744150192492784 -0.038012997554193115 0.0
0.017538979588784784 -0.034393369815522226 0.0
0.016490470425127482 -0.044094050242293945 0.0
0.016110089696499415 -0.04392292281494628 0.0
0.01085198125385283 -0.044852312049329705 0.0
0.01528401538942494 -0.04847607430929188 0.0
0.01633206326328993 -0.040955213040578614 0.0
0.016974398255577262 -0.029459053046675746 0.0
0.01690518118664697 -0.019882062785621026 0.0
0.020008217606244712 -0.04222914919320585 0.0
0.009246732975547458 -0.010965419587713065 0.0
0.02016736544347994 -0.010394089298629188 0.0
0.022152273600404452 -0.035764173140923554 0.0
0.008346548335289531 -0.01828557221039643 0.0
0.013899764789620423 -0.04799907670942068 0.0
0.02041500741178134 -0.015783311113943217 0.0
0.019982586773023798 -0.016266626957330423 0.0