<VTKFile type="UnstructuredGrid"  version="0.1">
<UnstructuredGrid>
<Piece NumberOfPoints="713" NumberOfCells="1304">
<Points>
<DataArray type="Float64" NumberOfComponents="3" format="ascii">
0.0 0.0 0.0
10.0 0.0 0.0
10.0 2.0 0.0
5.0 2.0 0.0
0.0 2.0 0.0
0.199999999999856 0.0 0.0
0.3999999999996677 0.0 0.0
0.5999999999994683 0.0 0.0
0.7999999999993286 0.0 0.0
0.9999999999991888 0.0 0.0
1.199999999999033 0.0 0.0
1.399999999998576 0.0 0.0
1.599999999997992 0.0 0.0
1.799999999997408 0.0 0.0
1.999999999996825 0.0 0.0
2.199999999996241 0.0 0.0
2.399999999995657 0.0 0.0
2.599999999995073 0.0 0.0
2.79999999999449 0.0 0.0
2.999999999993906 0.0 0.0
3.199999999993322 0.0 0.0
3.399999999992738 0.0 0.0
3.599999999992154 0.0 0.0
3.799999999991571 0.0 0.0
3.999999999991022 0.0 0.0
4.199999999991187 0.0 0.0
4.399999999991491 0.0 0.0
4.599999999991795 0.0 0.0
4.799999999992099 0.0 0.0
4.999999999992403 0.0 0.0
5.199999999992706 0.0 0.0
5.39999999999301 0.0 0.0
5.599999999993313 0.0 0.0
5.799999999993618 0.0 0.0
5.999999999993922 0.0 0.0
6.199999999994227 0.0 0.0
6.39999999999453 0.0 0.0
6.599999999994833 0.0 0.0
6.799999999995138 0.0 0.0
6.999999999995442 0.0 0.0
7.199999999995747 0.0 0.0
7.39999999999605 0.0 0.0
7.599999999996353 0.0 0.0
7.799999999996658 0.0 0.0
7.999999999996962 0.0 0.0
8.199999999997265 0.0 0.0
8.399999999997569 0.0 0.0
8.599999999997873 0.0 0.0
8.799999999998176 0.0 0.0
8.99999999999848 0.0 0.0
9.199999999998786 0.0 0.0
9.399999999999089 0.0 0.0
9.599999999999392 0.0 0.0
9.799999999999697 0.0 0.0
10.0 0.1999999999996293 0.0
10.0 0.3999999999991157 0.0
10.0 0.5999999999985328 0.0
10.0 0.7999999999979498 0.0
10.0 0.9999999999973885 0.0
10.0 1.199999999997894 0.0
10.0 1.39999999999842 0.0
10.0 1.599999999998947 0.0
10.0 1.799999999999474 0.0
9.799999999999999 2.0 0.0
9.6 2.0 0.0
9.399999999999999 2.0 0.0
9.2 2.0 0.0
8.999999999999998 2.0 0.0
8.799999999999999 2.0 0.0
8.599999999999998 2.0 0.0
8.399999999999999 2.0 0.0
8.2 2.0 0.0
7.999999999999998 2.0 0.0
7.799999999999999 2.0 0.0
7.599999999999999 2.0 0.0
7.399999999999999 2.0 0.0
7.199999999999999 2.0 0.0
7.0 2.0 0.0
6.799999999999999 2.0 0.0
6.6 2.0 0.0
6.399999999999999 2.0 0.0
6.199999999999999 2.0 0.0
5.999999999999999 2.0 0.0
5.8 2.0 0.0
5.6 2.0 0.0
5.399999999999999 2.0 0.0
5.199999999999999 2.0 0.0
4.8 2.0 0.0
4.6 2.0 0.0
4.399999999999999 2.0 0.0
4.199999999999998 2.0 0.0
3.999999999999999 2.0 0.0
3.799999999999999 2.0 0.0
3.599999999999999 2.0 0.0
3.399999999999999 2.0 0.0
3.199999999999998 2.0 0.0
2.999999999999999 2.0 0.0
2.799999999999999 2.0 0.0
2.599999999999999 2.0 0.0
2.399999999999999 2.0 0.0
2.199999999999999 2.0 0.0
2.0 2.0 0.0
1.799999999999999 2.0 0.0
1.599999999999999 2.0 0.0
1.399999999999999 2.0 0.0
1.199999999999999 2.0 0.0
0.9999999999999991 2.0 0.0
0.7999999999999998 2.0 0.0
0.5999999999999996 2.0 0.0
0.3999999999999995 2.0 0.0
0.1999999999999993 2.0 0.0
0.0 1.799999999999167 0.0
0.0 1.6 0.0
0.0 1.400000000001387 0.0
0.0 1.200000000002774 0.0
0.0 1.000000000004117 0.0
0.0 0.8000000000033287 0.0
0.0 0.6000000000024965 0.0
0.0 0.4000000000016644 0.0
0.0 0.200000000000832 0.0
1.499207686858938 0.9671416246672391 0.0
2.690335006295381 0.9619521672166851 0.0
3.892537609238439 1.007271393615351 0.0
8.916602958236062 0.9848120741100651 0.0
7.714518201951718 1.024234589865042 0.0
6.514518201951581 1.024234589865268 0.0
5.299999999999998 1.000000000000349 0.0
0.7620577975594133 1.201991596673393 0.0
4.61755859746166 1.240410629378135 0.0
2.099999999996533 0.6749999999988996 0.0
3.289480163184942 0.6802242156869155 0.0
8.299999999999976 1.325000000000064 0.0
7.110519836808121 1.319775784312006 0.0
5.893184537067197 1.292851873188582 0.0
3.268568008578649 1.341967835735878 0.0
2.118368267083699 1.321829331075689 0.0
5.930896443153832 0.6493414313150682 0.0
7.106926174231782 0.6329785805444448 0.0
8.306926174233002 0.6329785805444098 0.0
4.427960725065653 0.6389803625370323 0.0
0.9828791719046732 0.6520555711814596 0.0
9.383333333333349 0.6166666666667164 0.0
9.383333333333326 1.383333333333367 0.0
4.974443803660211 0.5526668589022862 0.0
1.248084267804327 1.464555585366204 0.0
4.139486343919472 1.468449088519687 0.0
5.077806736162063 1.478342020848787 0.0
1.629462398503482 0.5098631373669138 0.0
2.579462070540726 0.5133714280880515 0.0
3.770778974032556 0.5099482598296803 0.0
8.764748922637567 1.526880805960684 0.0
7.820537929455645 1.486628571911716 0.0
6.632254923791462 1.492045881343967 0.0
2.796478414430566 1.477149214423874 0.0
6.403521585563812 0.5228507855762514 0.0
7.603521585564883 0.5228507855756581 0.0
8.783559188644787 0.5066440811355862 0.0
0.5060338924245764 0.5082251307884346 0.0
5.451633334958382 0.4799315318847731 0.0
1.683269995544083 1.547372422998862 0.0
0.448590368789599 1.551409631210402 0.0
5.545526974704655 1.582008455135239 0.0
3.666056976948354 1.56999765613834 0.0
0.4385739326402744 0.9352922270094057 0.0
9.58170539854767 0.9922137522194456 0.0
4.93200119575972 0.9247090920592975 0.0
6.20679636316332 1.642443126922768 0.0
7.418963044745086 1.587405313446662 0.0
2.98103695524982 0.412594686552066 0.0
2.420975602092416 1.592770352831584 0.0
7.97902439790374 0.4072296471687943 0.0
6.779024397902082 0.4072296471687297 0.0
1.130444757308209 0.9859238872709168 0.0
0.8901814758011342 1.60566856081121 0.0
4.263670373274499 0.9915754392410991 0.0
3.096698167273431 1.009056907826855 0.0
6.088506433998166 0.9857489435828969 0.0
1.902225037409936 1.003483800311746 0.0
7.288506433998439 0.9857489435828686 0.0
8.498964973312972 1.005823551167602 0.0
2.307571737417198 1.008136792450924 0.0
8.100397971125554 1.000138280273345 0.0
6.900397971125225 1.000138280273792 0.0
3.499307350770321 0.9996496628144824 0.0
5.703656022566558 0.9885479657552226 0.0
4.719420624357892 1.622286409566126 0.0
4.099803549896894 0.3600308081356619 0.0
1.286100671532495 0.3637431910670685 0.0
9.120549139677793 1.655065205594329 0.0
9.11726214008418 0.3400668903113251 0.0
4.642568097328033 0.3514924793220939 0.0
9.630437629189052 0.3309104953729904 0.0
9.674493769554315 1.668196579944218 0.0
1.936458797611609 0.3337070483410596 0.0
3.461817573918652 0.3447876019040473 0.0
8.440152788772068 1.649667667046397 0.0
6.973083089482548 1.643748677366674 0.0
3.126874515006838 1.659115470008545 0.0
6.070607878384977 0.3410183041038941 0.0
7.255014454789089 0.32792256737713 0.0
8.462493615948901 0.3368393217476116 0.0
9.236261261261264 0.9276047786917867 0.0
5.885444386845415 1.667751020273455 0.0
0.8062340689595878 0.3261579034781319 0.0
2.29463843780282 0.308358158429197 0.0
8.10536156219338 1.691641841570632 0.0
4.041916759198581 0.7211683801597477 0.0
1.324377365289917 0.710525897087282 0.0
9.023167917315867 1.292262965009952 0.0
2.044244009166302 1.693807225416931 0.0
0.7675765545556328 0.8969765944392112 0.0
2.86965991063896 0.7069213925303978 0.0
6.330340089355722 1.293078607468788 0.0
7.530340089355831 1.29307860746885 0.0
2.509347777214458 1.27231292939881 0.0
7.890652222779963 0.7276870706009825 0.0
6.690652222780154 0.7276870706013264 0.0
4.380959112578968 1.65866292149053 0.0
0.3278422400819535 1.233362752678148 0.0
5.754468991464942 0.3469215055361071 0.0
9.69195804401614 0.7000195364707393 0.0
9.691250997975434 1.303243780084337 0.0
5.54324561063747 1.237401556904767 0.0
9.044596057577811 0.6843248705785732 0.0
5.208929198448351 0.3519433027337513 0.0
3.708880196230617 1.249762029554333 0.0
1.713349558540635 1.234899745098077 0.0
4.586522821995393 0.9261740906803194 0.0
5.241145838821565 0.7007005766013242 0.0
1.434457446926135 1.701926055218157 0.0
0.2821921707428039 0.3393165318407161 0.0
3.42846431357046 1.714274134409306 0.0
5.26283485467567 1.710141275531951 0.0
3.966530105129177 1.718376080180638 0.0
4.891301048299285 1.259923533724591 0.0
0.2787500712946937 0.6906723798523376 0.0
1.822166578929051 0.7301892210727335 0.0
8.593276160688786 1.287322908694633 0.0
2.386017956680413 0.7288816957021155 0.0
3.576911792171353 0.7225526638483954 0.0
8.013982043315597 1.271118304297217 0.0
6.82303669320588 1.277631295759485 0.0
2.891837633696712 1.215141906356511 0.0
8.708162366297856 0.7848580936429009 0.0
7.496736072543097 0.7897651325976158 0.0
6.296736072542775 0.7897651325982009 0.0
5.523181420933933 0.7588744249744506 0.0
4.725538117155759 0.6529070682798582 0.0
2.736307197014292 0.273961667653487 0.0
7.663692802980817 1.726038332346062 0.0
6.446842959287713 1.783714797320288 0.0
1.126188383272983 1.743715177525389 0.0
2.64757240694847 1.787239829472812 0.0
6.546646507559373 0.2589894635657943 0.0
7.746646507561152 0.2589894635657218 0.0
4.079302268890254 1.221431431691139 0.0
4.433746883463333 0.2983726043497702 0.0
1.032697650548726 1.318076986199429 0.0
1.309492735411376 1.208980965369829 0.0
3.896105387998365 0.2579746081881307 0.0
9.378751775005455 1.725996478164223 0.0
9.3965279828929 0.2649862374471925 0.0
1.515757555362918 0.2603060454608533 0.0
4.959097093232828 1.726144293543605 0.0
4.912501341257775 0.2529154558175828 0.0
4.342421824442713 1.285376618065631 0.0
7.023506283123107 0.293611963231815 0.0
8.215829626877609 0.2682061590942965 0.0
5.28145265730745 1.291130016052329 0.0
8.693992162747364 1.744100892812201 0.0
0.6256567126095668 1.775064851453201 0.0
0.2724967459749605 1.756941612685287 0.0
8.90781713264278 0.2741674349222226 0.0
7.184202236567151 1.709454269177068 0.0
3.212962614055919 0.2641656831057426 0.0
0.6761590188374282 0.6746441670621973 0.0
1.020489328989316 0.2487299689497893 0.0
1.485017749467193 1.402133856149482 0.0
6.734223224917944 1.790518105434539 0.0
2.657549589911705 0.7636227781082678 0.0
6.542590471647475 1.237213715285722 0.0
7.742745187066703 1.235538225115726 0.0
0.5794341726414672 0.2480285055479751 0.0
1.842901067642841 1.760146518280044 0.0
3.84389577648662 0.7524680119172447 0.0
3.061589173628368 1.407936939342627 0.0
6.144447294584154 0.5911674363009913 0.0
7.344447294585433 0.5911674362995804 0.0
8.544447294586682 0.5911674362982269 0.0
5.491507940982565 0.1734458797927824 0.0
[...]
<PointData Vectors="fields">
<DataArray type="Float64" Name="U" NumberOfComponents="3" format="ascii">
0.0 0.0 0.0
0.02918983549845959 0.0 0.0
0.0024808046099647567 -0.005411263052722368 0.0
0.014520599144397843 -0.04654539337890743 0.0
0.026608494195565068 -0.005075790454617077 0.0
0.00031146307823317156 -0.005577048681817792 0.0
0.0009205229115914073 -0.00915150660644254 0.0
0.001468298042586412 -0.012312659339721923 0.0
0.0019269301250793428 -0.015089137853156137 0.0
0.002329344956178246 -0.017738948891077078 0.0
0.002718794716150495 -0.020284401636870796 0.0
0.0031117928435318637 -0.02273405305225796 0.0
0.0035450622801615223 -0.025101029104130576 0.0
0.003994153083915588 -0.027386413367143397 0.0
0.004480777551682086 -0.029564871089529873 0.0
0.004992582572949223 -0.031635218859508554 0.0
0.005549929191312497 -0.033599244024359536 0.0
0.006115712645975316 -0.035440114430462404 0.0
0.006736154123654475 -0.03715811639617781 0.0
0.007351552349816155 -0.038746455043071 0.0
0.008013769967252716 -0.04019877936470811 0.0
0.008675855943551724 -0.04150321387654575 0.0
0.009370726463093434 -0.04267030879250254 0.0
0.010070484075013689 -0.04366167843712286 0.0
0.010777517025266544 -0.04455033587613696 0.0
0.011513297632311735 -0.04526520215046912 0.0
0.012241575413935238 -0.04581950441913463 0.0
0.012992021724552678 -0.04622335833542788 0.0
0.013730694015939487 -0.04645961137206094 0.0
0.014500164547632423 -0.04654434087383563 0.0
0.015248670994427768 -0.04646938246586951 0.0
0.01599691882053009 -0.046230614285724114 0.0
0.01674172430741277 -0.04583580143061879 0.0
0.017476884353430835 -0.04527951039263951 0.0
0.018191690743177093 -0.04457392918460795 0.0
0.018921096630506905 -0.04372511079003859 0.0
0.019610840031666178 -0.04268456161047542 0.0
0.020302028744700006 -0.04154639960311938 0.0
0.020961076382065926 -0.040259829299276066 0.0
0.02161836381160482 -0.03881194586650011 0.0
0.022237815439980758 -0.03723329840250062 0.0
0.02283444823975848 -0.03553138088262693 0.0
0.023388241923686454 -0.03367692202250534 0.0
0.02392979799980745 -0.03174825441195593 0.0
0.024429661268820544 -0.029702308464128836 0.0
0.024911087102123627 -0.027541982955061977 0.0
0.02535415146215895 -0.02527623993362726 0.0
0.02577879996831644 -0.022929569194787752 0.0
0.026167043787096632 -0.02049311133135604 0.0
0.026563971213890692 -0.017962881536392382 0.0
0.02695332365816549 -0.015341814762277754 0.0
0.02738655686710721 -0.012572600140379439 0.0
0.027867159386565064 -0.00956670762606142 0.0
0.028612280219992077 -0.005985294032804558 0.0
0.024654165010538347 -0.0021406146407433532 0.0
0.021732618015657228 -0.003311647155343054 0.0
0.019080527123287686 -0.004054847707190811 0.0
0.016647441926110906 -0.00461578365791861 0.0
0.01428679135159426 -0.004967860209402171 0.0
0.011969429902638789 -0.005197101249135642 0.0
0.00965417050506468 -0.005335824151546969 0.0
0.007304145758393506 -0.005398076694021207 0.0
0.004912032608639634 -0.005410999845368347 0.0
0.002479065504012291 -0.007851535202629356 0.0
0.002486046297608856 -0.010323547926637037 0.0
0.0025323492974787384 -0.01283366551576862 0.0
0.0026386109272294473 -0.015369629929383066 0.0
0.0028140397025731537 -0.017895332816919483 0.0
0.0030521091311256562 -0.020377520552186168 0.0
0.0033553124240286256 -0.02282683964670567 0.0
0.0037104364461889804 -0.025189167277318795 0.0
0.004118400144957532 -0.027463608818492323 0.0
0.004583465103225007 -0.029647079140547452 0.0
0.005070027297947185 -0.031716485996235236 0.0
0.005617491299427616 -0.033676205262020746 0.0
0.006171125383737784 -0.03551429859737499 0.0
0.00677692779338487 -0.03722458184139887 0.0
0.007400003577635487 -0.038807793894470116 0.0
0.008047437962642262 -0.0402525998295484 0.0
0.008700677353755482 -0.04152373713038934 0.0
0.009389572212875189 -0.04271249068023007 0.0
0.01009421909528142 -0.04371522299764667 0.0
0.010794820180940037 -0.044573328534968204 0.0
0.011526359236932945 -0.04528714333274601 0.0
0.012280660699294656 -0.04583778524693784 0.0
0.01300852239033745 -0.04623072663628519 0.0
0.01376994315011662 -0.046469115279477634 0.0
0.015288582574533584 -0.046449764909774566 0.0
0.01602265309656202 -0.04621130384346851 0.0
0.01674998609060601 -0.04581682006786398 0.0
0.017493696272790217 -0.045273888926116806 0.0
0.018229647866501737 -0.04455334931934616 0.0
0.018962076031148162 -0.043682136750996976 0.0
0.019646255779739774 -0.042668242484373044 0.0
0.020337918215198154 -0.041503079058815374 0.0
0.021006597871693643 -0.04020022381976757 0.0
0.021665431066183346 -0.03875062235077116 0.0
0.022280778773838147 -0.037131815759387926 0.0
0.02288985520411796 -0.035434734632463064 0.0
0.023454719156816777 -0.03357888347858588 0.0
0.023985553693212865 -0.03160272095971526 0.0
0.024498319605245962 -0.029511672603379446 0.0
0.02496247010765454 -0.027312208653958128 0.0
0.025368536572257443 -0.025020715715168392 0.0
0.02574138139047426 -0.022631886651419433 0.0
0.026043197146808597 -0.020174126660955635 0.0
0.026284415139381755 -0.01765500383161086 0.0
0.02645175413650621 -0.015112309831068349 0.0
0.026551634848502068 -0.012556811068703337 0.0
0.02660058500591887 -0.010028625970975584 0.0
0.026612291086053383 -0.007532980600213761 0.0
0.024157412154700283 -0.005077027426410363 0.0
0.021744846794717637 -0.005064645778152193 0.0
0.019378679735298932 -0.005006873304600032 0.0
0.017038072310650024 -0.004873798043480305 0.0
0.014705721846855025 -0.004628353193311036 0.0
0.012327739759924716 -0.004280027405747432 0.0
0.009874672912982413 -0.0037237656517370055 0.0
0.0072242658543757105 -0.002955210497041734 0.0
0.004075562999135147 -0.0016699272316277698 0.0
0.01418817527150774 -0.024052960586629243 0.0
0.014198740096007311 -0.036518846873771604 0.0
0.014527824727225374 -0.04445110027548194 0.0
0.01454870473581723 -0.019085270661002976 0.0
0.014285521545495318 -0.03284050925235926 0.0
0.014375917114667376 -0.042399509349187264 0.0
0.01450254124048421 -0.0467310313203338 0.0
0.01701485706907805 -0.014646316258300625 0.0
0.014843393948849828 -0.046586515581478465 0.0
0.011416742135633219 -0.03082536163440805 0.0
0.012571944507630474 -0.04109085981783785 0.0
0.011142091473839063 -0.026531267106946966 0.0
0.01218727907370224 -0.0382175038101193 0.0
0.013561328324138254 -0.0453024939826499 0.0
0.01659236606736764 -0.04095220752240021 0.0
0.017529186653972666 -0.030989341447090587 0.0
0.01568202533289952 -0.045154575902854564 0.0
0.017166867739028584 -0.038250367694763136 0.0
0.01827590467573054 -0.026510859311270743 0.0
0.013749221029502977 -0.04620357330285609 0.0
0.010575621301221893 -0.017580569726138393 0.0
0.018822662437834276 -0.012871602447286402 0.0
0.009889121942195753 -0.01303477479613806 0.0
0.01445479678348651 -0.04682929387385 0.0
0.019730254930123266 -0.0208866715077649 0.0
0.015982576866463438 -0.04533898181085488 0.0
0.014367304351815626 -0.04680710636847317 0.0
0.009313676335203191 -0.02558905107118673 0.0
0.010483754810656425 -0.03547205130868025 0.0
0.01232547879881797 -0.04380274925216078 0.0
0.008604378874880568 -0.02092522291015168 0.0
0.010001060055247205 -0.03169992912703116 0.0
0.011660429752784189 -0.04159541774528806 0.0
0.01812521537112181 -0.037351106914150625 0.0
0.016897724889973046 -0.04294531421395661 0.0
0.01864887546353805 -0.033865178359748775 0.0
0.020008951554588723 -0.020800013818490358 0.0
0.008747810640809687 -0.010978022044283284 0.0
0.015364163929063038 -0.046409686545816335 0.0
0.020227022755531666 -0.026127038689304764 0.0
0.021143440171852282 -0.010619647406304274 0.0
0.01334604434269048 -0.04620368272448859 0.0
0.017255698630529358 -0.043250436465654275 0.0
0.014002376627038621 -0.010230877926496625 0.0
0.01432142643470875 -0.01028738379120618 0.0
0.014483779986282471 -0.04690729787544689 0.0
0.011705031955185451 -0.043886270536090954 0.0
0.009688482703048895 -0.03552718609374622 0.0
0.010357893349791494 -0.038803170747502475 0.0
0.01965747928696496 -0.03396065212457458 0.0
0.020239072060584912 -0.03006964177708532 0.0
0.0182253997198078 -0.04060247068893967 0.0
0.014447308890420507 -0.019464560450224128 0.0
0.02159719313766856 -0.016307934838570622 0.0
0.01448091442408873 -0.045817561639148574 0.0
0.01456150581248428 -0.03977723769919399 0.0
0.014561846230112063 -0.044564750314011366 0.0
0.014544354985465888 -0.02870612959346664 0.0
0.014617307025334782 -0.03677565345897897 0.0
0.014390649587535245 -0.02425349284291675 0.0
0.014571593996577951 -0.03295748631964621 0.0
0.014485495981984012 -0.028815811930875894 0.0
0.014503406199274226 -0.039856879858884614 0.0
0.01449805169115261 -0.042441381490444095 0.0
0.014526530699157861 -0.045928202476729324 0.0
0.015157680346429284 -0.04661504275948949 0.0
0.01239406493295078 -0.04514427289044689 0.0
0.007299457754717814 -0.021456073273762005 0.0
0.006868727139185927 -0.01641867463116135 0.0
0.02229647653694665 -0.016514276724667223 0.0
0.01364345570662076 -0.04650438194131948 0.0
0.02257695310849902 -0.009147887543197083 0.0
0.006505733059779862 -0.009382802708910497 0.0
0.00783631372851249 -0.029018245116527053 0.0
0.01088521466012698 -0.04208471024967965 0.0
0.00757354766473934 -0.02483083752726631 0.0
0.010061720024221739 -0.03919405102007361 0.0
0.018867912186142033 -0.03986590857182496 0.0
0.017066828634606193 -0.04449514217969393 0.0
0.01972234282195177 -0.03694200753856051 0.0
0.021639654226698165 -0.024668713301795098 0.0
0.01513003498272711 -0.01490997243063096 0.0
0.012351927990648963 -0.045204371332671356 0.0
0.006390921410579049 -0.015243511356679736 0.0
0.008205504953753898 -0.03272143601555633 0.0
0.007593826506690297 -0.028629595782242355 0.0
0.01353389576129151 -0.04504353152775989 0.0
0.011342488854026332 -0.02193866046035006 0.0
0.011066394123252679 -0.017693613077700003 0.0
0.02124135853542018 -0.03011844320568595 0.0
0.013498789521651566 -0.014699747110268686 0.0
0.01234816732552712 -0.038010429113181796 0.0
0.013118798801653632 -0.0433980927144771 0.0
0.012031238891081843 -0.0345889654516141 0.0
0.016781126153293826 -0.034862178014345685 0.0
0.01705415815874483 -0.031049980998011904 0.0
0.016126568359946237 -0.04128324829155405 0.0
0.016016603701515347 -0.045986332228412835 0.0
0.017461943713696092 -0.0089510537374665 0.0
0.016305561053969034 -0.045626279839344294 0.0
0.017752449523069622 -0.008521933845045735 0.0
0.010753614170707186 -0.009057023396725702 0.0
0.014036361953782772 -0.04630464447114698 0.0
0.018001904174953707 -0.017455358457141103 0.0
0.014998208482314963 -0.046679026076184675 0.0
0.015659470031738645 -0.043566174025069335 0.0
0.016942101487685532 -0.02654390310495044 0.0
0.014394762702868158 -0.04655493824438375 0.0
0.014762368103186301 -0.046771381001371265 0.0
0.022214432667208923 -0.02313988170544395 0.0
0.006469334040748624 -0.007383093911820411 0.0
0.018543902062890385 -0.0418426713136979 0.0
0.01382469184675047 -0.046599285364031184 0.0
0.017226868198179257 -0.04460288148695765 0.0
0.01460900103542041 -0.04685059646499678 0.0
0.011091735374153883 -0.00779438767939862 0.0
0.011776378309303816 -0.027811897442764306 0.0
0.01134974172542517 -0.023071709410563107 0.0
0.012136445176655752 -0.033708302013059945 0.0
0.013098089995266314 -0.04285501388558077 0.0
0.011882907000566515 -0.02971910705444635 0.0
0.012745848683567651 -0.040379113600263666 0.0
0.01606304894968433 -0.038185402766993136 0.0
0.016800129002098377 -0.02172924820749337 0.0
0.016260606248331234 -0.03490798080576507 0.0
0.01547891999744632 -0.04356793041254771 0.0
0.014959174109224063 -0.04634604664179159 0.0
0.014149289366727965 -0.04671038283914526 0.0
0.008801577983754616 -0.03676662499475973 0.0
0.008025516184238819 -0.03319016688053003 0.0
0.010417542961773968 -0.04257199154510598 0.0
0.02303859195048549 -0.019306594948321553 0.0
0.020909913151714688 -0.03595829271874733 0.0
0.018617430002826715 -0.042023682421375136 0.0
0.021294869011831113 -0.03239738301250955 0.0
0.015242195324809176 -0.04518322278303792 0.0
0.013027446223409749 -0.046083860214642544 0.0
0.018219722255430157 -0.01817065618541397 0.0
0.016868129697376905 -0.021692921342403727 0.0
0.011501254846220667 -0.04428051652667761 0.0
0.0058890203790415785 -0.013115780128044555 0.0
0.023512698962977426 -0.0126774058518245 0.0
0.006385216934025588 -0.024216631149531525 0.0
0.014624401947007759 -0.046720460860609346 0.0
0.014255181201642585 -0.046690790907691855 0.0
0.015190163274860072 -0.04600248773580928 0.0
0.01950226955168847 -0.038787463816211176 0.0
0.02202911812564718 -0.027465628851182075 0.0
0.014205782055428311 -0.046721115558730736 0.0
0.006216117395309683 -0.021752934972730426 0.0
0.02375870433625707 -0.012899419728107434 0.0
0.02362571391316776 -0.008424253057599808 0.0
0.022932025594109028 -0.019222576542860685 0.0
0.009137626018609499 -0.03750164579265758 0.0
0.009824677394623069 -0.04043518437280039 0.0
0.010849884900837754 -0.013437761220347703 0.0
0.0055801473739481786 -0.018073601595230738 0.0
0.018860264030863702 -0.023809327483287072 0.0
0.009616282632035766 -0.0408025752116971 0.0
0.012609263126023503 -0.0362184213425699 0.0
0.013209978682078467 -0.04221211191472116 0.0
0.012379533750543948 -0.03253674978785524 0.0
0.005163165140504637 -0.012033946596188661 0.0
0.0222644553451015 -0.027885728993358193 0.0
0.01346806852604156 -0.04420671548958245 0.0
0.017259903889936215 -0.03946193775669321 0.0
0.016182311073663976 -0.04425352198233424 0.0
0.01774972280119432 -0.03624370578474725 0.0
0.018880922379421076 -0.02372197541964391 0.0
0.01600389169437489 -0.04618774954488786 0.0
0.012149933034926258 -0.024825862235388373 0.0
0.020066307392777247 -0.03836284335737034 0.0
0.020917557478727557 -0.03518200421235966 0.0
0.017982737045667774 -0.04360441727315294 0.0
0.020053137874286118 -0.013587674631738055 0.0
0.012160876781139205 -0.013003331622010656 0.0
0.012638392867057664 -0.04575793081232908 0.0
0.016162575949248265 -0.04431003776765115 0.0
0.007708469990816059 -0.03471929945553062 0.0
0.006924957743879809 -0.030872942675170146 0.0
0.015749519421573835 -0.04574864021645122 0.0
0.011838987789494469 -0.020817058136435286 0.0
0.019575335045902306 -0.02922890550936624 0.0
0.016557510376347537 -0.011796272161735335 0.0
0.016850772682089416 -0.045374397136333705 0.0
0.020463912946728495 -0.006983644215184869 0.0
0.010753769980622696 -0.043129208264550974 0.0
0.006346514103524275 -0.026890355280641452 0.0
0.015365621084680404 -0.04637782977783656 0.0
0.011409623387506628 -0.04441438720502651 0.0
0.016574989933066525 -0.0425491511417131 0.0
0.021808218880863716 -0.03253111173902935 0.0
0.014482899479355629 -0.04689112089611573 0.0
0.014990464025298031 -0.007774662137972097 0.0
0.01352119725608152 -0.04595322277720469 0.0
0.014209192707936446 -0.04529980337660297 0.0
0.013513622073759265 -0.026564435362793185 0.0
0.013805621746502962 -0.03823287066836483 0.0
0.013615392416243283 -0.03083712122335657 0.0
0.013911437310507362 -0.04109220009366357 0.0
0.005490632752825844 -0.01864520017301867 0.0
0.015360869256307504 -0.007476720669316859 0.0
0.018138049565925785 -0.04351227662910956 0.0
0.014521282466910675 -0.046890409363557164 0.0
0.014064568401611958 -0.04670914817047604 0.0
0.01147203901762429 -0.010308394736396366 0.0
0.023533283906953507 -0.02177818894044218 0.0
0.018356383940060363 -0.029014715781818003 0.0
0.018358853800028177 -0.032852492491789495 0.0
0.017078074498806006 -0.03994696520366976 0.0
0.011438858534203341 -0.03651495605349044 0.0
0.011889333708710963 -0.03965938109781755 0.0
0.01299052568407295 -0.04449176674657889 0.0
0.0066623576649497045 -0.030838350945398562 0.0
0.006031016157377994 -0.026565254542133213 0.0
0.012121600349126196 -0.042822998453731505 0.0
0.010434465643461305 -0.03370494318564874 0.0
0.01093208894706698 -0.037234450578717625 0.0
0.01672510970443426 -0.028805396035992487 0.0
0.01623262192414031 -0.01225843477611972 0.0
0.00861886515632018 -0.0077413125836861794 0.0
0.02000186419499808 -0.006663173088301208 0.0
0.015208804208062365 -0.041063409393527435 0.0
0.015601838629133625 -0.031006571706432146 0.0
0.014912958610918764 -0.04522013900125688 0.0
0.015386831940768161 -0.038180750784040166 0.0
0.015717184998646997 -0.026373251089377832 0.0
0.022477524597160424 -0.025609255692635863 0.0
0.008756350907452255 -0.005963365469106351 0.0
0.01836329520971588 -0.035749729754952574 0.0
0.017176933571719757 -0.041874264405718155 0.0
0.018852510242098816 -0.032050665517731954 0.0
0.013664735757073072 -0.03480405294956722 0.0
0.013977688119284761 -0.04125055299647536 0.0
0.013571731389787654 -0.030917703424828323 0.0
0.015811194160557263 -0.0462866029631749 0.0
0.014047336488385253 -0.043571029855594044 0.0
0.010278076840470685 -0.03249245236040453 0.0
0.009872888908688156 -0.02836398572399653 0.0
0.01712758689017866 -0.045073712390664274 0.0
0.014895362019986317 -0.046712691458204635 0.0
0.012198808239724917 -0.019661941593528836 0.0
0.013563676104366224 -0.021693146505798372 0.0
0.013325582454738019 -0.016773447724125427 0.0
0.012857748032339727 -0.04493564526885534 0.0
0.013625604556345263 -0.026486948145194006 0.0
0.007719518951578096 -0.03471974197120812 0.0
0.008620901088215711 -0.03808920398981872 0.0
0.01457542821234684 -0.046745374527528916 0.0
0.021905057283205888 -0.030515919529637385 0.0
0.01923716695650724 -0.04084687389942271 0.0
0.011284870030683413 -0.04088548655423423 0.0
0.01068863946889749 -0.03794292160105705 0.0
0.009335169315376642 -0.022411585750726028 0.0
0.024375940862261136 -0.0061025744159296895 0.0
0.005043883530985146 -0.007978781009014078 0.0
0.015345410939802285 -0.016620009167060776 0.0
0.015113418142115207 -0.04591117425549769 0.0
0.014228948335199061 -0.045242286513218335 0.0
0.013925634781263928 -0.04575155433787854 0.0
0.012804496801470763 -0.007702588335968788 0.0
0.013075031614442078 -0.04622527516119033 0.0
0.02388871348049582 -0.016668855772948195 0.0
0.013783664729870027 -0.021667947542773836 0.0
0.01911466421411974 -0.011391499262784094 0.0
0.013266093537765257 -0.045571244866889904 0.0
0.014027219863108748 -0.03823864729895699 0.0
0.014181219381252493 -0.043630254089411 0.0
0.01392312040687158 -0.03499200291620363 0.0
0.009445403275121972 -0.020006691823554117 0.0
0.009637461721637356 -0.027841952039281928 0.0
0.009303753797113637 -0.02327509162145122 0.0
0.012082018977232175 -0.042827196896034564 0.0
0.011446578082378164 -0.04031149514046742 0.0
0.014732442188539132 -0.04632533808931706 0.0
0.011703531038671586 -0.04501596768398121 0.0
0.02006176183703742 -0.018707766592602156 0.0
0.020249002385349872 -0.026519482713603652 0.0
0.018518707237909167 -0.03821666574776447 0.0
0.014061048349825314 -0.045923239878022486 0.0
0.016274555991742563 -0.04521289422917687 0.0
0.0048655970000744475 -0.021904730594286142 0.0
0.008873660895560099 -0.018202007004343584 0.0
0.009313511511592322 -0.01566162222385011 0.0
0.016831513624778367 -0.023895920525868974 0.0
0.015977950564224172 -0.03954370136071529 0.0
0.016286082717851265 -0.03645465359825317 0.0
0.015410141586623507 -0.0443747956563633 0.0
0.017857114315085135 -0.04122125190250403 0.0
0.01321428627114659 -0.0397012340305146 0.0
0.013772591471089814 -0.04450937197744535 0.0
0.01300095097182105 -0.036604012308438974 0.0
0.023764543998295324 -0.010591691573339775 0.0
0.014430299451303544 -0.046429695324038726 0.0
0.016844611321683425 -0.03665698181580562 0.0
0.017051876995058165 -0.03336871426538779 0.0
0.016004737491532837 -0.04268928868532687 0.0
0.015576901520199693 -0.04233025032591274 0.0
0.010674410802265865 -0.04341174843169484 0.0
0.01478975253467482 -0.04677755451577213 0.0
0.015871033906136107 -0.039691526610034195 0.0
0.016514823258012762 -0.028592135073293497 0.0
0.016453856677328287 -0.01930648984133184 0.0
0.01931292566369614 -0.040713308193990196 0.0
0.00902519432512378 -0.010661856574480178 0.0
0.019620394532708772 -0.010105650217008657 0.0
0.021380692570427753 -0.03449520286972687 0.0
0.008055183423548228 -0.017644483154180997 0.0
0.01344763608100915 -0.04626413523538896 0.0
0.019860088040569157 -0.01533203232663826 0.0