<VTKFile type="UnstructuredGrid"  version="0.1">
<UnstructuredGrid>
<Piece NumberOfPoints="713" NumberOfCells="1304">
<Points>
<DataArray type="Float64" NumberOfComponents="3" format="ascii">
0.0 0.0 0.0
10.0 0.0 0.0
10.0 2.0 0.0
5.0 2.0 0.0
0.0 2.0 0.0
0.199999999999856 0.0 0.0
0.3999999999996677 0.0 0.0
0.5999999999994683 0.0 0.0
0.7999999999993286 0.0 0.0
0.9999999999991888 0.0 0.0
1.199999999999033 0.0 0.0
1.399999999998576 0.0 0.0
1.599999999997992 0.0 0.0
1.799999999997408 0.0 0.0
1.999999999996825 0.0 0.0
2.199999999996241 0.0 0.0
2.399999999995657 0.0 0.0
2.599999999995073 0.0 0.0
2.79999999999449 0.0 0.0
2.999999999993906 0.0 0.0
3.199999999993322 0.0 0.0
3.399999999992738 0.0 0.0
3.599999999992154 0.0 0.0
3.799999999991571 0.0 0.0
3.999999999991022 0.0 0.0
4.199999999991187 0.0 0.0
4.399999999991491 0.0 0.0
4.599999999991795 0.0 0.0
4.799999999992099 0.0 0.0
4.999999999992403 0.0 0.0
5.199999999992706 0.0 0.0
5.39999999999301 0.0 0.0
5.599999999993313 0.0 0.0
5.799999999993618 0.0 0.0
5.999999999993922 0.0 0.0
6.199999999994227 0.0 0.0
6.39999999999453 0.0 0.0
6.599999999994833 0.0 0.0
6.799999999995138 0.0 0.0
6.999999999995442 0.0 0.0
7.199999999995747 0.0 0.0
7.39999999999605 0.0 0.0
7.599999999996353 0.0 0.0
7.799999999996658 0.0 0.0
7.999999999996962 0.0 0.0
8.199999999997265 0.0 0.0
8.399999999997569 0.0 0.0
8.599999999997873 0.0 0.0
8.799999999998176 0.0 0.0
8.99999999999848 0.0 0.0
9.199999999998786 0.0 0.0
9.399999999999089 0.0 0.0
9.599999999999392 0.0 0.0
9.799999999999697 0.0 0.0
10.0 0.1999999999996293 0.0
10.0 0.3999999999991157 0.0
10.0 0.5999999999985328 0.0
10.0 0.7999999999979498 0.0
10.0 0.9999999999973885 0.0
10.0 1.199999999997894 0.0
10.0 1.39999999999842 0.0
10.0 1.599999999998947 0.0
10.0 1.799999999999474 0.0
9.799999999999999 2.0 0.0
9.6 2.0 0.0
9.399999999999999 2.0 0.0
9.2 2.0 0.0
8.999999999999998 2.0 0.0
8.799999999999999 2.0 0.0
8.599999999999998 2.0 0.0
8.399999999999999 2.0 0.0
8.2 2.0 0.0
7.999999999999998 2.0 0.0
7.799999999999999 2.0 0.0
7.599999999999999 2.0 0.0
7.399999999999999 2.0 0.0
7.199999999999999 2.0 0.0
7.0 2.0 0.0
6.799999999999999 2.0 0.0
6.6 2.0 0.0
6.399999999999999 2.0 0.0
6.199999999999999 2.0 0.0
5.999999999999999 2.0 0.0
5.8 2.0 0.0
5.6 2.0 0.0
5.399999999999999 2.0 0.0
5.199999999999999 2.0 0.0
4.8 2.0 0.0
4.6 2.0 0.0
4.399999999999999 2.0 0.0
4.199999999999998 2.0 0.0
3.999999999999999 2.0 0.0
3.799999999999999 2.0 0.0
3.599999999999999 2.0 0.0
3.399999999999999 2.0 0.0
3.199999999999998 2.0 0.0
2.999999999999999 2.0 0.0
2.799999999999999 2.0 0.0
2.599999999999999 2.0 0.0
2.399999999999999 2.0 0.0
2.199999999999999 2.0 0.0
2.0 2.0 0.0
1.799999999999999 2.0 0.0
1.599999999999999 2.0 0.0
1.399999999999999 2.0 0.0
1.199999999999999 2.0 0.0
0.9999999999999991 2.0 0.0
0.7999999999999998 2.0 0.0
0.5999999999999996 2.0 0.0
0.3999999999999995 2.0 0.0
0.1999999999999993 2.0 0.0
0.0 1.799999999999167 0.0
0.0 1.6 0.0
0.0 1.400000000001387 0.0
0.0 1.200000000002774 0.0
0.0 1.000000000004117 0.0
0.0 0.8000000000033287 0.0
0.0 0.6000000000024965 0.0
0.0 0.4000000000016644 0.0
0.0 0.200000000000832 0.0
1.499207686858938 0.9671416246672391 0.0
2.690335006295381 0.9619521672166851 0.0
3.892537609238439 1.007271393615351 0.0
8.916602958236062 0.9848120741100651 0.0
7.714518201951718 1.024234589865042 0.0
6.514518201951581 1.024234589865268 0.0
5.299999999999998 1.000000000000349 0.0
0.7620577975594133 1.201991596673393 0.0
4.61755859746166 1.240410629378135 0.0
2.099999999996533 0.6749999999988996 0.0
3.289480163184942 0.6802242156869155 0.0
8.299999999999976 1.325000000000064 0.0
7.110519836808121 1.319775784312006 0.0
5.893184537067197 1.292851873188582 0.0
3.268568008578649 1.341967835735878 0.0
2.118368267083699 1.321829331075689 0.0
5.930896443153832 0.6493414313150682 0.0
7.106926174231782 0.6329785805444448 0.0
8.306926174233002 0.6329785805444098 0.0
4.427960725065653 0.6389803625370323 0.0
0.9828791719046732 0.6520555711814596 0.0
9.383333333333349 0.6166666666667164 0.0
9.383333333333326 1.383333333333367 0.0
4.974443803660211 0.5526668589022862 0.0
1.248084267804327 1.464555585366204 0.0
4.139486343919472 1.468449088519687 0.0
5.077806736162063 1.478342020848787 0.0
1.629462398503482 0.5098631373669138 0.0
2.579462070540726 0.5133714280880515 0.0
3.770778974032556 0.5099482598296803 0.0
8.764748922637567 1.526880805960684 0.0
7.820537929455645 1.486628571911716 0.0
6.632254923791462 1.492045881343967 0.0
2.796478414430566 1.477149214423874 0.0
6.403521585563812 0.5228507855762514 0.0
7.603521585564883 0.5228507855756581 0.0
8.783559188644787 0.5066440811355862 0.0
0.5060338924245764 0.5082251307884346 0.0
5.451633334958382 0.4799315318847731 0.0
1.683269995544083 1.547372422998862 0.0
0.448590368789599 1.551409631210402 0.0
5.545526974704655 1.582008455135239 0.0
3.666056976948354 1.56999765613834 0.0
0.4385739326402744 0.9352922270094057 0.0
9.58170539854767 0.9922137522194456 0.0
4.93200119575972 0.9247090920592975 0.0
6.20679636316332 1.642443126922768 0.0
7.418963044745086 1.587405313446662 0.0
2.98103695524982 0.412594686552066 0.0
2.420975602092416 1.592770352831584 0.0
7.97902439790374 0.4072296471687943 0.0
6.779024397902082 0.4072296471687297 0.0
1.130444757308209 0.9859238872709168 0.0
0.8901814758011342 1.60566856081121 0.0
4.263670373274499 0.9915754392410991 0.0
3.096698167273431 1.009056907826855 0.0
6.088506433998166 0.9857489435828969 0.0
1.902225037409936 1.003483800311746 0.0
7.288506433998439 0.9857489435828686 0.0
8.498964973312972 1.005823551167602 0.0
2.307571737417198 1.008136792450924 0.0
8.100397971125554 1.000138280273345 0.0
6.900397971125225 1.000138280273792 0.0
3.499307350770321 0.9996496628144824 0.0
5.703656022566558 0.9885479657552226 0.0
4.719420624357892 1.622286409566126 0.0
4.099803549896894 0.3600308081356619 0.0
1.286100671532495 0.3637431910670685 0.0
9.120549139677793 1.655065205594329 0.0
9.11726214008418 0.3400668903113251 0.0
4.642568097328033 0.3514924793220939 0.0
9.630437629189052 0.3309104953729904 0.0
9.674493769554315 1.668196579944218 0.0
1.936458797611609 0.3337070483410596 0.0
3.461817573918652 0.3447876019040473 0.0
8.440152788772068 1.649667667046397 0.0
6.973083089482548 1.643748677366674 0.0
3.126874515006838 1.659115470008545 0.0
6.070607878384977 0.3410183041038941 0.0
7.255014454789089 0.32792256737713 0.0
8.462493615948901 0.3368393217476116 0.0
9.236261261261264 0.9276047786917867 0.0
5.885444386845415 1.667751020273455 0.0
0.8062340689595878 0.3261579034781319 0.0
2.29463843780282 0.308358158429197 0.0
8.10536156219338 1.691641841570632 0.0
4.041916759198581 0.7211683801597477 0.0
1.324377365289917 0.710525897087282 0.0
9.023167917315867 1.292262965009952 0.0
2.044244009166302 1.693807225416931 0.0
0.7675765545556328 0.8969765944392112 0.0
2.86965991063896 0.7069213925303978 0.0
6.330340089355722 1.293078607468788 0.0
7.530340089355831 1.29307860746885 0.0
2.509347777214458 1.27231292939881 0.0
7.890652222779963 0.7276870706009825 0.0
6.690652222780154 0.7276870706013264 0.0
4.380959112578968 1.65866292149053 0.0
0.3278422400819535 1.233362752678148 0.0
5.754468991464942 0.3469215055361071 0.0
9.69195804401614 0.7000195364707393 0.0
9.691250997975434 1.303243780084337 0.0
5.54324561063747 1.237401556904767 0.0
9.044596057577811 0.6843248705785732 0.0
5.208929198448351 0.3519433027337513 0.0
3.708880196230617 1.249762029554333 0.0
1.713349558540635 1.234899745098077 0.0
4.586522821995393 0.9261740906803194 0.0
5.241145838821565 0.7007005766013242 0.0
1.434457446926135 1.701926055218157 0.0
0.2821921707428039 0.3393165318407161 0.0
3.42846431357046 1.714274134409306 0.0
5.26283485467567 1.710141275531951 0.0
3.966530105129177 1.718376080180638 0.0
4.891301048299285 1.259923533724591 0.0
0.2787500712946937 0.6906723798523376 0.0
1.822166578929051 0.7301892210727335 0.0
8.593276160688786 1.287322908694633 0.0
2.386017956680413 0.7288816957021155 0.0
3.576911792171353 0.7225526638483954 0.0
8.013982043315597 1.271118304297217 0.0
6.82303669320588 1.277631295759485 0.0
2.891837633696712 1.215141906356511 0.0
8.708162366297856 0.7848580936429009 0.0
7.496736072543097 0.7897651325976158 0.0
6.296736072542775 0.7897651325982009 0.0
5.523181420933933 0.7588744249744506 0.0
4.725538117155759 0.6529070682798582 0.0
2.736307197014292 0.273961667653487 0.0
7.663692802980817 1.726038332346062 0.0
6.446842959287713 1.783714797320288 0.0
1.126188383272983 1.743715177525389 0.0
2.64757240694847 1.787239829472812 0.0
6.546646507559373 0.2589894635657943 0.0
7.746646507561152 0.2589894635657218 0.0
4.079302268890254 1.221431431691139 0.0
4.433746883463333 0.2983726043497702 0.0
1.032697650548726 1.318076986199429 0.0
1.309492735411376 1.208980965369829 0.0
3.896105387998365 0.2579746081881307 0.0
9.378751775005455 1.725996478164223 0.0
9.3965279828929 0.2649862374471925 0.0
1.515757555362918 0.2603060454608533 0.0
4.959097093232828 1.726144293543605 0.0
4.912501341257775 0.2529154558175828 0.0
4.342421824442713 1.285376618065631 0.0
7.023506283123107 0.293611963231815 0.0
8.215829626877609 0.2682061590942965 0.0
5.28145265730745 1.291130016052329 0.0
8.693992162747364 1.744100892812201 0.0
0.6256567126095668 1.775064851453201 0.0
0.2724967459749605 1.756941612685287 0.0
8.90781713264278 0.2741674349222226 0.0
7.184202236567151 1.709454269177068 0.0
3.212962614055919 0.2641656831057426 0.0
0.6761590188374282 0.6746441670621973 0.0
1.020489328989316 0.2487299689497893 0.0
1.485017749467193 1.402133856149482 0.0
6.734223224917944 1.790518105434539 0.0
2.657549589911705 0.7636227781082678 0.0
6.542590471647475 1.237213715285722 0.0
7.742745187066703 1.235538225115726 0.0
0.5794341726414672 0.2480285055479751 0.0
1.842901067642841 1.760146518280044 0.0
3.84389577648662 0.7524680119172447 0.0
3.061589173628368 1.407936939342627 0.0
6.144447294584154 0.5911674363009913 0.0
7.344447294585433 0.5911674362995804 0.0
8.544447294586682 0.5911674362982269 0.0
5.491507940982565 0.1734458797927824 0.0
[...]
<PointData Vectors="fields">
<DataArray type="Float64" Name="U" NumberOfComponents="3" format="ascii">
0.0 0.0 0.0
0.02891365841604538 0.0 0.0
0.002359687761100548 -0.005466935873153118 0.0
0.014431067282690824 -0.04606290255348286 0.0
0.026283726766152562 -0.005124421155577811 0.0
0.0002951679872671832 -0.005559727049927552 0.0
0.0009088385853239265 -0.00911899843573984 0.0
0.001465084000252575 -0.012251802745157712 0.0
0.001936872604364376 -0.014997267559496357 0.0
0.002351451507444431 -0.017611702075253206 0.0
0.0027505011402986597 -0.02012005636038952 0.0
0.0031492303824126617 -0.02253174428941915 0.0
0.0035823392993849412 -0.02485991793653741 0.0
0.004025866637019461 -0.027105596774112645 0.0
0.004499877952421085 -0.029245422805715994 0.0
0.0049940657002654956 -0.0312798474340654 0.0
0.005530147832846748 -0.03321028893791797 0.0
0.006074206628685367 -0.035021784557099804 0.0
0.006672053668753411 -0.03671440084617439 0.0
0.0072679145549774254 -0.03828168133352532 0.0
0.007911545432002998 -0.03971687549252003 0.0
0.008557674714940651 -0.04100864763542835 0.0
0.009237601396401025 -0.04216614847211506 0.0
0.009923176639273973 -0.04315259813237768 0.0
0.010616471955208887 -0.0440373303539513 0.0
0.011338925094954778 -0.04475244433077764 0.0
0.012054109864749245 -0.04531003771081154 0.0
0.012790919549814428 -0.04572011389204734 0.0
0.013516360443742444 -0.04596641360701908 0.0
0.014271703518472529 -0.04606340725796449 0.0
0.0150068133197548 -0.046003582702790834 0.0
0.015742108967906863 -0.04578362703730161 0.0
0.01647442701326295 -0.04541022346419131 0.0
0.017197992248734126 -0.04487805570065283 0.0
0.01790264671725956 -0.04419889849534853 0.0
0.01862313478205823 -0.043377479931976465 0.0
0.019305674843044875 -0.04236734899058991 0.0
0.019991859202534486 -0.04125807073438578 0.0
0.0206491324552932 -0.04000071875931385 0.0
0.02130692515093093 -0.03858119308732466 0.0
0.021928694214523592 -0.037029611756289146 0.0
0.02252882408090294 -0.035352615815607696 0.0
0.02308554600781435 -0.033522329468129705 0.0
0.023629871750722127 -0.03161537918717236 0.0
0.02413230352733594 -0.029590121534307474 0.0
0.024616087409209092 -0.027449316043098682 0.0
0.02506181812857606 -0.025202368070658433 0.0
0.025489277328553425 -0.022873089356467778 0.0
0.02588139605019279 -0.02045324350656057 0.0
0.026283269805767742 -0.0179386232441128 0.0
0.026678866459339534 -0.015330967618138208 0.0
0.027119497219770087 -0.01257353910637625 0.0
0.027609627355893212 -0.009575920435429723 0.0
0.028363150767467572 -0.005990188706963162 0.0
0.02437636470214988 -0.002150924059356179 0.0
0.02146098217449519 -0.0033392571107051902 0.0
0.018826085488026924 -0.004093915924169033 0.0
0.016411270738710647 -0.004662282567051961 0.0
0.01407105707031667 -0.005019450020122327 0.0
0.011773664975381487 -0.005251792843334043 0.0
0.00947789707722979 -0.005391485420591617 0.0
0.0071468302902479635 -0.0054539278308879365 0.0
0.004772917457984369 -0.005466842092535896 0.0
0.0023578699915654 -0.007889314087060178 0.0
0.0023649039978956587 -0.01034371456031124 0.0
0.002411346101947721 -0.012836960379342502 0.0
0.002518193654931864 -0.01535634190294439 0.0
0.0026950752338879974 -0.01786579654861101 0.0
0.002935183044871981 -0.020331953323808424 0.0
0.003241916017735754 -0.022764127022820026 0.0
0.0036021231624277783 -0.025109150860421876 0.0
0.004016763450422283 -0.02736586384162796 0.0
0.004490901061268713 -0.029530231033976548 0.0
0.004989067957058834 -0.03157975376026711 0.0
0.0055506268954532935 -0.03351807869349524 0.0
0.006120134914605044 -0.03533322502521079 0.0
0.006741804232359398 -0.03701844601694162 0.0
0.007378471502120438 -0.03857478303506098 0.0
0.008035799162593884 -0.03999085200424173 0.0
0.00869174965007916 -0.041233084700974726 0.0
0.009380112283609575 -0.04239134417825154 0.0
0.010079257177506906 -0.043364875680171736 0.0
0.010771046200047582 -0.044195015465378525 0.0
0.01149098356737931 -0.04488268818953567 0.0
0.012231918982601892 -0.04540938342863245 0.0
0.01294677586650606 -0.04578149318392726 0.0
0.013694163829080579 -0.04600175940145744 0.0
0.015184663571467801 -0.04595559152504655 0.0
0.015905181126899065 -0.04570726188940995 0.0
0.01661932633500807 -0.04530644215176847 0.0
0.017349281911514212 -0.044759743684328425 0.0
0.01807114607266796 -0.044039416272954844 0.0
0.01878883810435586 -0.04317113739526386 0.0
0.019459332824003084 -0.04216321658006977 0.0
0.02013644898130501 -0.041007981428286266 0.0
0.020790048434263905 -0.039717953570890314 0.0
0.02143336673321634 -0.03828536485227315 0.0
0.022032845640046563 -0.036689783191209024 0.0
0.02262576073270495 -0.03501684205580995 0.0
0.023176355322312277 -0.033190771545678656 0.0
0.0236939615683788 -0.031247847434327014 0.0
0.02419485790599138 -0.029192937420320177 0.0
0.024649910712969677 -0.027030945664944434 0.0
0.025049877563352717 -0.024777628213291325 0.0
0.025418468396564073 -0.02242767771155993 0.0
0.02571838564420758 -0.02000756729044489 0.0
0.025958878494546242 -0.01752575983367705 0.0
0.026126173640054845 -0.015019029674580483 0.0
0.026226437111411063 -0.012499392694101663 0.0
0.02627578495262194 -0.010006423696888759 0.0
0.026287458889801513 -0.007546134026859742 0.0
0.023868201258500983 -0.005125696203971017 0.0
0.021491313967749042 -0.005113154825884769 0.0
0.01916086016565566 -0.005055067543271388 0.0
0.016856752495741777 -0.004921380173736862 0.0
0.014560648829762001 -0.004674140095228782 0.0
0.012219968748966047 -0.004322803001039145 0.0
0.009803332695357157 -0.003760089312524966 0.0
0.007187115265822194 -0.0029804454108422083 0.0
0.0040680583594036685 -0.0016827169268795934 0.0
0.014037969146082959 -0.023803039908023352 0.0
0.01404950391303066 -0.03603960873416715 0.0
0.014370366791878378 -0.043884178363366645 0.0
0.014349769899632136 -0.019033490187848626 0.0
0.014100428296623353 -0.03266401514062226 0.0
0.014211658735788543 -0.0420487842595113 0.0
0.014343097256906039 -0.04621617393114677 0.0
0.016821577969771382 -0.01454912295864769 0.0
0.01469541131833287 -0.046029456561988216 0.0
0.011313052212631724 -0.03044980044163552 0.0
0.012428914603316688 -0.04055557632953177 0.0
0.010977801173060322 -0.026420218169955302 0.0
0.012058296913771381 -0.037966352345977075 0.0
0.013437592343047767 -0.04485999929846646 0.0
0.016421283486442718 -0.04041902506240094 0.0
0.017333815525959216 -0.03061250065863611 0.0
0.015475653364522269 -0.04472123352916392 0.0
0.01693817540823569 -0.0379988371305499 0.0
0.018044827041064374 -0.026402641591170974 0.0
0.013578781143990899 -0.045645351498130655 0.0
0.010476109079897539 -0.017439544649232298 0.0
0.018592668360252192 -0.012860025752854038 0.0
0.009718910798709823 -0.013029749990777547 0.0
0.01426564239883092 -0.04630055602008909 0.0
0.01949701607747641 -0.020695008614422108 0.0
0.015829897675685323 -0.044781584876151505 0.0
0.014244127975474086 -0.0462864009533612 0.0
0.009248428313506439 -0.02531791479772636 0.0
0.010381973948730219 -0.03501884711262036 0.0
0.012172167443844013 -0.04325214744885412 0.0
0.008450900202312355 -0.020863447976208746 0.0
0.009865527445694765 -0.031542665655419286 0.0
0.011571626982867924 -0.04127494876469601 0.0
0.017931829532536546 -0.036870450057069036 0.0
0.01666327314272919 -0.0425887984237118 0.0
0.01840616136325497 -0.0336827243242051 0.0
0.0197676554678853 -0.020740790554049787 0.0
0.008669773296826878 -0.01092199020693923 0.0
0.01515328121596682 -0.04592618298637304 0.0
0.019987641205323366 -0.025846400557644894 0.0
0.02089530146197762 -0.010585621924688659 0.0
0.013248596407273317 -0.0457315667394909 0.0
0.0170868273253839 -0.042706685298125865 0.0
0.013855373307180301 -0.010193083593460182 0.0
0.014117194752755457 -0.010296953549281004 0.0
0.014319817937128622 -0.04636365370752683 0.0
0.011637419643770516 -0.043506342251654416 0.0
0.009584464540239073 -0.03532681790655509 0.0
0.010241877540160139 -0.03830624976048443 0.0
0.019436696596111646 -0.03353989443663458 0.0
0.01998416149916471 -0.029933977339707825 0.0
0.017968855495797725 -0.04031083594174961 0.0
0.0142902924580821 -0.01929280004223187 0.0
0.02133911910604897 -0.016190794314599424 0.0
0.014322537074247353 -0.04524896044121878 0.0
0.014406583770984511 -0.039252173516235084 0.0
0.014396534695306247 -0.04414653666691259 0.0
0.014391412455294314 -0.028368616495304352 0.0
0.014434896243132789 -0.03654547842051967 0.0
0.014195203256413814 -0.02416063796238622 0.0
0.014419112197762112 -0.0325392036103312 0.0
0.014292567275182173 -0.02868183899960733 0.0
0.014329702687695149 -0.03956928665528402 0.0
0.014341852315874794 -0.04188789219441623 0.0
0.014364413105516331 -0.04545721251159022 0.0
0.015030467767397289 -0.04608058845217097 0.0
0.012228461976645254 -0.04459782742980417 0.0
0.007261862636065476 -0.021260848157815836 0.0
0.006721948693307941 -0.016392349563835562 0.0
0.022044590170083627 -0.016485729295067416 0.0
0.013455003283020918 -0.045969525413362904 0.0
0.022328672617693748 -0.009148827482391719 0.0
0.006356374937270035 -0.009408014312921965 0.0
0.007797334230738665 -0.02868879520600489 0.0
0.010747784281971384 -0.04155564501976337 0.0
0.00743489843543018 -0.024740880662540436 0.0
0.009988895637109346 -0.03893428445667344 0.0
0.018672446491870363 -0.039360391645451354 0.0
0.016818137673884518 -0.04409896190243777 0.0
0.019454885662442398 -0.03672345819211581 0.0
0.02137962598994078 -0.024584661671902392 0.0
0.01492507555313914 -0.014887365294150154 0.0
0.01227767552034537 -0.04477996112851207 0.0
0.0063463366750591286 -0.015139164962924405 0.0
0.008148536601379257 -0.03232514807072251 0.0
0.0074678288206051595 -0.028508576057481128 0.0
0.013373553195423143 -0.04447907380701311 0.0
0.011236892961134184 -0.02172794048853774 0.0
0.010892110697757989 -0.01765334323078735 0.0
0.020990585109045314 -0.029770970624744455 0.0
0.013355049489530653 -0.014599404580465963 0.0
0.012215921971782381 -0.037511859331773645 0.0
0.012998394868278501 -0.0430207898638495 0.0
0.01188371435203445 -0.03439365650814423 0.0
0.016600530126423752 -0.03441438764652511 0.0
0.016834107254294794 -0.030895717370217048 0.0
0.015915337277319044 -0.04096509835873699 0.0
0.0158761078564876 -0.045442861377998855 0.0
0.017267621527545813 -0.008937723655314277 0.0
0.016069465850133108 -0.045187157875323715 0.0
0.017522590178197153 -0.008536401496512818 0.0
0.010573308847917129 -0.009081233799176618 0.0
0.013901397342501214 -0.04581707570184108 0.0
0.017777546775208892 -0.0174163049646751 0.0
0.01478548042748412 -0.04618063146986446 0.0
0.015498702996087192 -0.043006865653415396 0.0
0.016751234366490286 -0.026249157866090268 0.0
0.014232840627705426 -0.04599449421182691 0.0
0.014577558647554757 -0.04625635768610714 0.0
0.021944968325002534 -0.022916020066216663 0.0
0.006418418658673795 -0.007359574994559279 0.0
0.018359394692138337 -0.041319748381233985 0.0
0.013727910302146843 -0.046108603509736716 0.0
0.01706816986168347 -0.04406173155568463 0.0
0.01446630593506938 -0.046308378978350474 0.0
0.010988960184194362 -0.0077817925933512545 0.0
0.011668426276993469 -0.027493759198431673 0.0
0.011178490296705878 -0.022989696885418083 0.0
0.012016989523589598 -0.033278584768737476 0.0
0.012946892873623135 -0.04230216561491495 0.0
0.011719016375893364 -0.02957789006842661 0.0
0.012618060826294577 -0.040082453462542016 0.0
0.015893747251376298 -0.037684161113870296 0.0
0.016583879170664537 -0.021658619527095878 0.0
0.016050005064571615 -0.03470637278482459 0.0
0.015283166832507576 -0.04318490871353394 0.0
0.014774140606801458 -0.045857856746181085 0.0
0.013972602954253115 -0.04616248439340067 0.0
0.008713943016926233 -0.03630630472581973 0.0
0.007923835130457798 -0.03302445218120812 0.0
0.010375954035208905 -0.042239354064577773 0.0
0.022758353898083707 -0.019145874915744238 0.0
0.02067677600588268 -0.03551634788445211 0.0
0.01834429911096655 -0.04170537653199101 0.0
0.021022612221188924 -0.032242783152309655 0.0
0.015086453155961355 -0.044616807905433924 0.0
0.012846366731514916 -0.04554643185165773 0.0
0.01800822036622734 -0.018020844274608226 0.0
0.016676125369857443 -0.021484908482423917 0.0
0.011345066133988516 -0.043743877881452384 0.0
0.005746208633080007 -0.013114199721162123 0.0
0.02326023524112089 -0.01266787365180662 0.0
0.006371404236480739 -0.02397822728050694 0.0
0.014514204717357041 -0.04620769667460463 0.0
0.014048758312609601 -0.04617847434346631 0.0
0.0150393948089655 -0.04543928448635569 0.0
0.019229761327587514 -0.03853856776496322 0.0
0.021760717379835964 -0.027360271658243934 0.0
0.014072239240989756 -0.04620893761489188 0.0
0.006080676458844277 -0.02168961141883213 0.0
0.02347231874038397 -0.012834710737308328 0.0
0.023343508434476346 -0.008423942938052851 0.0
0.022671594426543283 -0.019179919837332915 0.0
0.009064051047185145 -0.0372757751085834 0.0
0.00970451040697174 -0.039928331819525806 0.0
0.010743844515181553 -0.013353349583487967 0.0
0.005556993078763617 -0.017933212442540432 0.0
0.01863988976421013 -0.023566835458927588 0.0
0.009574120628193118 -0.04051502052231592 0.0
0.012478777632330147 -0.03574566329202382 0.0
0.013079710563885566 -0.04186826587524116 0.0
0.01221830695380435 -0.03236532305197045 0.0
0.005124937512724019 -0.011967373547599825 0.0
0.021995549443959962 -0.027581844800050173 0.0
0.013311519793427942 -0.04364457825034773 0.0
0.01708021235059987 -0.03894921774670212 0.0
0.015963263296511505 -0.04385407015080021 0.0
0.017515083071853385 -0.03602659914162269 0.0
0.018646192256774233 -0.02363856264110726 0.0
0.01576148808003346 -0.04573213859101961 0.0
0.01203410650425919 -0.0245632420974662 0.0
0.019852060525032064 -0.037884060639580365 0.0
0.020640003842844503 -0.03499400381264646 0.0
0.01771424166459622 -0.04324336163454506 0.0
0.01981810984721792 -0.013509170328361611 0.0
0.011974761873178625 -0.012996298946175825 0.0
0.01256393557421223 -0.045314527230606 0.0
0.016003105505519078 -0.043751719556400004 0.0
0.0076482937501365965 -0.03429521848037132 0.0
0.006817838860364033 -0.030734698991520655 0.0
0.015535451171466475 -0.04529528900186854 0.0
0.011661688867135488 -0.020752655990978985 0.0
0.01934812587971451 -0.02889079125477559 0.0
0.01637288985746842 -0.011740234751582354 0.0
0.016703049319735704 -0.044838350333656185 0.0
0.020228297529184643 -0.007002757490551909 0.0
0.010609657910047013 -0.04260085480574487 0.0
0.006336341567133844 -0.026605908173774395 0.0
0.01522599172072208 -0.0458283345771979 0.0
0.011359713244782774 -0.04402591377053612 0.0
0.016407360138228525 -0.04200205506360559 0.0
0.021552940416549107 -0.03214636053983573 0.0
0.014329788029347718 -0.04635782580166885 0.0
0.01483365476187086 -0.007773933241671922 0.0
0.013406896682244361 -0.04548651984762355 0.0
0.014059036587571678 -0.04485474777108468 0.0
0.013327912182861383 -0.026451439712758942 0.0
0.013642803585139529 -0.037978217943552765 0.0
0.013477111886076603 -0.030458621490649283 0.0
0.01376007284836436 -0.04055259171272382 0.0
0.005355401777949456 -0.018605198155377575 0.0
0.01514362151755807 -0.007504534056406543 0.0
0.01796653743313128 -0.04298161008442991 0.0
0.014346204304855469 -0.046356176248499685 0.0
0.013947301153963766 -0.046202180551111555 0.0
0.011359526670689967 -0.01026481842199719 0.0
0.023263062137449275 -0.0217209370115418 0.0
0.018122908107830057 -0.028883669281499373 0.0
0.018154353367019177 -0.0324446315570971 0.0
0.016847635957095985 -0.0396624582515153 0.0
0.011312647592897176 -0.036294259061341864 0.0
0.011755888889995616 -0.0391424600638684 0.0
0.01288229944326138 -0.044081183706037114 0.0
0.006639231406540773 -0.030483143650602722 0.0
0.005909854652511772 -0.026466475734498805 0.0
0.012029656404604263 -0.04246796048160866 0.0
0.010305204728883213 -0.03352446055267655 0.0
0.010817421793040651 -0.03675312722697348 0.0
0.01653921072969352 -0.028467836153582806 0.0
0.016018119341275353 -0.01225212606330044 0.0
0.00845305250296773 -0.0077778913810997415 0.0
0.019755993943214083 -0.006680532411452923 0.0
0.015048546412083842 -0.04052431825989828 0.0
0.01543409673759775 -0.03062562444874372 0.0
0.014735046512343883 -0.044779149135561976 0.0
0.015191696738488783 -0.037926851595618316 0.0
0.015510550967285309 -0.02626273411385075 0.0
0.02220431108347061 -0.02534479267900019 0.0
0.008687464214148477 -0.0059625678923011785 0.0
0.01816361053109311 -0.03529357793635888 0.0
0.016939043005321903 -0.041546725407363976 0.0
0.01861025451775606 -0.03188967235441672 0.0
0.013523547783616217 -0.03435299191838359 0.0
0.013821242983223578 -0.04093042626337723 0.0
0.013391791371625023 -0.03076266843860317 0.0
0.015683432460219277 -0.04575922759119064 0.0
0.013891644979318071 -0.043009116944780504 0.0
0.010189081434250239 -0.032089598565684704 0.0
0.00972483091854937 -0.028238889775917177 0.0
0.016869221610555155 -0.04466496992454652 0.0
0.014756819753978365 -0.046165307176920675 0.0
0.012076353641772127 -0.01948788783804247 0.0
0.013421633524785086 -0.02148491596695261 0.0
0.013134435405609055 -0.01673862042103009 0.0
0.01269629298582065 -0.04437948598092492 0.0
0.013486048363900495 -0.026192010359220565 0.0
0.007636773055583064 -0.03453855625796568 0.0
0.008527104048456987 -0.037615095011485765 0.0
0.014419881882986468 -0.04618974805451394 0.0
0.021631148003634148 -0.030382942086652105 0.0
0.01895782293321116 -0.04055876461987703 0.0
0.011151060759574939 -0.040360503666593724 0.0
0.01058869347999384 -0.03770194264419045 0.0
0.009264556400096519 -0.022195999235308076 0.0
0.02412035705179244 -0.006109010500362429 0.0
0.004904448777206742 -0.008015163436370326 0.0
0.01517486769572522 -0.016492393651816033 0.0
0.014925168213786215 -0.04544393783073049 0.0
0.014070018511218245 -0.044673440386243976 0.0
0.013762808692256323 -0.04518532490826646 0.0
0.012606724721931115 -0.007734377829831054 0.0
0.012998139139478193 -0.04576353228550124 0.0
0.023597937468994405 -0.016549555528131456 0.0
0.013591868908009402 -0.021596316228447553 0.0
0.01889440315401579 -0.011344305627377484 0.0
0.013099895845839558 -0.045012521566439964 0.0
0.013878508351399782 -0.03773367703956001 0.0
0.01402643772548993 -0.043242870881339324 0.0
0.013747877518207226 -0.034788509093886755 0.0
0.009367925688565188 -0.01983025760058644 0.0
0.009567108321944224 -0.02752779728280319 0.0
0.009148622486552174 -0.02319398340917864 0.0
0.011934808230030717 -0.042282182376824795 0.0
0.011351907079119632 -0.040021578203737584 0.0
0.01457795922951564 -0.045760557343131565 0.0
0.011536679666978578 -0.044486264937401244 0.0
0.019824189572488816 -0.018551471926994308 0.0
0.01999893846522479 -0.026416149742213263 0.0
0.018265950218549525 -0.037971332034175784 0.0
0.013920675531140334 -0.045453110056567075 0.0
0.016045767674981216 -0.04478484069372725 0.0
0.004870887500550194 -0.02170912171058644 0.0
0.008715108244350546 -0.018160039258964023 0.0
0.009149577434374003 -0.015637874140544624 0.0
0.016614605819985667 -0.02380789025308639 0.0
0.015810655737719788 -0.03902397364493634 0.0
0.01607468562529308 -0.03623081938999034 0.0
0.01521559763904625 -0.04396593032430287 0.0
0.017676091703333528 -0.04069465891409574 0.0
0.013070372637402666 -0.039178500691473425 0.0
0.013635593880256548 -0.044093974634005814 0.0
0.012847010350783682 -0.036378178986097263 0.0
0.02347917333348218 -0.010560119249292182 0.0
0.014274551417834269 -0.0459341674021618 0.0
0.01666533702425655 -0.036180132732851554 0.0
0.016830755301566563 -0.0331880786606101 0.0
0.01579478065825061 -0.04233410451865395 0.0
0.015414731553550958 -0.04177955603160209 0.0
0.010635639727378006 -0.043057232773970416 0.0
0.014592100452207388 -0.04626451074554617 0.0
0.01566640597892211 -0.0394086655208828 0.0
0.016300658691310276 -0.028461781690318533 0.0
0.0162405817161674 -0.01925364659033968 0.0
0.019116349226474462 -0.04020599832816639 0.0
0.008859051253925094 -0.010675573140308188 0.0
0.0193835676384783 -0.010107119083246317 0.0
0.02113655228602432 -0.03407747666725426 0.0
0.00799414645514581 -0.01750554724950274 0.0
0.013269020017969469 -0.04571805593600384 0.0
0.01962440178745065 -0.015307170966392407 0.0
0.019066958212126988 -0.01559017620159079 0.0