<VTKFile type="UnstructuredGrid"  version="0.1">
<UnstructuredGrid>
<Piece NumberOfPoints="713" NumberOfCells="1304">
<Points>
<DataArray type="Float64" NumberOfComponents="3" format="ascii">
0.0 0.0 0.0
10.0 0.0 0.0
10.0 2.0 0.0
5.0 2.0 0.0
0.0 2.0 0.0
0.199999999999856 0.0 0.0
0.3999999999996677 0.0 0.0
0.5999999999994683 0.0 0.0
0.7999999999993286 0.0 0.0
0.9999999999991888 0.0 0.0
1.199999999999033 0.0 0.0
1.399999999998576 0.0 0.0
1.599999999997992 0.0 0.0
1.799999999997408 0.0 0.0
1.999999999996825 0.0 0.0
2.199999999996241 0.0 0.0
2.399999999995657 0.0 0.0
2.599999999995073 0.0 0.0
2.79999999999449 0.0 0.0
2.999999999993906 0.0 0.0
3.199999999993322 0.0 0.0
3.399999999992738 0.0 0.0
3.599999999992154 0.0 0.0
3.799999999991571 0.0 0.0
3.999999999991022 0.0 0.0
4.199999999991187 0.0 0.0
4.399999999991491 0.0 0.0
4.599999999991795 0.0 0.0
4.799999999992099 0.0 0.0
4.999999999992403 0.0 0.0
5.199999999992706 0.0 0.0
5.39999999999301 0.0 0.0
5.599999999993313 0.0 0.0
5.799999999993618 0.0 0.0
5.999999999993922 0.0 0.0
6.199999999994227 0.0 0.0
6.39999999999453 0.0 0.0
6.599999999994833 0.0 0.0
6.799999999995138 0.0 0.0
6.999999999995442 0.0 0.0
7.199999999995747 0.0 0.0
7.39999999999605 0.0 0.0
7.599999999996353 0.0 0.0
7.799999999996658 0.0 0.0
7.999999999996962 0.0 0.0
8.199999999997265 0.0 0.0
8.399999999997569 0.0 0.0
8.599999999997873 0.0 0.0
8.799999999998176 0.0 0.0
8.99999999999848 0.0 0.0
9.199999999998786 0.0 0.0
9.399999999999089 0.0 0.0
9.599999999999392 0.0 0.0
9.799999999999697 0.0 0.0
10.0 0.1999999999996293 0.0
10.0 0.3999999999991157 0.0
10.0 0.5999999999985328 0.0
10.0 0.7999999999979498 0.0
10.0 0.9999999999973885 0.0
10.0 1.199999999997894 0.0
10.0 1.39999999999842 0.0
10.0 1.599999999998947 0.0
10.0 1.799999999999474 0.0
9.799999999999999 2.0 0.0
9.6 2.0 0.0
9.399999999999999 2.0 0.0
9.2 2.0 0.0
8.999999999999998 2.0 0.0
8.799999999999999 2.0 0.0
8.599999999999998 2.0 0.0
8.399999999999999 2.0 0.0
8.2 2.0 0.0
7.999999999999998 2.0 0.0
7.799999999999999 2.0 0.0
7.599999999999999 2.0 0.0
7.399999999999999 2.0 0.0
7.199999999999999 2.0 0.0
7.0 2.0 0.0
6.799999999999999 2.0 0.0
6.6 2.0 0.0
6.399999999999999 2.0 0.0
6.199999999999999 2.0 0.0
5.999999999999999 2.0 0.0
5.8 2.0 0.0
5.6 2.0 0.0
5.399999999999999 2.0 0.0
5.199999999999999 2.0 0.0
4.8 2.0 0.0
4.6 2.0 0.0
4.399999999999999 2.0 0.0
4.199999999999998 2.0 0.0
3.999999999999999 2.0 0.0
3.799999999999999 2.0 0.0
3.599999999999999 2.0 0.0
3.399999999999999 2.0 0.0
3.199999999999998 2.0 0.0
2.999999999999999 2.0 0.0
2.799999999999999 2.0 0.0
2.599999999999999 2.0 0.0
2.399999999999999 2.0 0.0
2.199999999999999 2.0 0.0
2.0 2.0 0.0
1.799999999999999 2.0 0.0
1.599999999999999 2.0 0.0
1.399999999999999 2.0 0.0
1.199999999999999 2.0 0.0
0.9999999999999991 2.0 0.0
0.7999999999999998 2.0 0.0
0.5999999999999996 2.0 0.0
0.3999999999999995 2.0 0.0
0.1999999999999993 2.0 0.0
0.0 1.799999999999167 0.0
0.0 1.6 0.0
0.0 1.400000000001387 0.0
0.0 1.200000000002774 0.0
0.0 1.000000000004117 0.0
0.0 0.8000000000033287 0.0
0.0 0.6000000000024965 0.0
0.0 0.4000000000016644 0.0
0.0 0.200000000000832 0.0
1.499207686858938 0.9671416246672391 0.0
2.690335006295381 0.9619521672166851 0.0
3.892537609238439 1.007271393615351 0.0
8.916602958236062 0.9848120741100651 0.0
7.714518201951718 1.024234589865042 0.0
6.514518201951581 1.024234589865268 0.0
5.299999999999998 1.000000000000349 0.0
0.7620577975594133 1.201991596673393 0.0
4.61755859746166 1.240410629378135 0.0
2.099999999996533 0.6749999999988996 0.0
3.289480163184942 0.6802242156869155 0.0
8.299999999999976 1.325000000000064 0.0
7.110519836808121 1.319775784312006 0.0
5.893184537067197 1.292851873188582 0.0
3.268568008578649 1.341967835735878 0.0
2.118368267083699 1.321829331075689 0.0
5.930896443153832 0.6493414313150682 0.0
7.106926174231782 0.6329785805444448 0.0
8.306926174233002 0.6329785805444098 0.0
4.427960725065653 0.6389803625370323 0.0
0.9828791719046732 0.6520555711814596 0.0
9.383333333333349 0.6166666666667164 0.0
9.383333333333326 1.383333333333367 0.0
4.974443803660211 0.5526668589022862 0.0
1.248084267804327 1.464555585366204 0.0
4.139486343919472 1.468449088519687 0.0
5.077806736162063 1.478342020848787 0.0
1.629462398503482 0.5098631373669138 0.0
2.579462070540726 0.5133714280880515 0.0
3.770778974032556 0.5099482598296803 0.0
8.764748922637567 1.526880805960684 0.0
7.820537929455645 1.486628571911716 0.0
6.632254923791462 1.492045881343967 0.0
2.796478414430566 1.477149214423874 0.0
6.403521585563812 0.5228507855762514 0.0
7.603521585564883 0.5228507855756581 0.0
8.783559188644787 0.5066440811355862 0.0
0.5060338924245764 0.5082251307884346 0.0
5.451633334958382 0.4799315318847731 0.0
1.683269995544083 1.547372422998862 0.0
0.448590368789599 1.551409631210402 0.0
5.545526974704655 1.582008455135239 0.0
3.666056976948354 1.56999765613834 0.0
0.4385739326402744 0.9352922270094057 0.0
9.58170539854767 0.9922137522194456 0.0
4.93200119575972 0.9247090920592975 0.0
6.20679636316332 1.642443126922768 0.0
7.418963044745086 1.587405313446662 0.0
2.98103695524982 0.412594686552066 0.0
2.420975602092416 1.592770352831584 0.0
7.97902439790374 0.4072296471687943 0.0
6.779024397902082 0.4072296471687297 0.0
1.130444757308209 0.9859238872709168 0.0
0.8901814758011342 1.60566856081121 0.0
4.263670373274499 0.9915754392410991 0.0
3.096698167273431 1.009056907826855 0.0
6.088506433998166 0.9857489435828969 0.0
1.902225037409936 1.003483800311746 0.0
7.288506433998439 0.9857489435828686 0.0
8.498964973312972 1.005823551167602 0.0
2.307571737417198 1.008136792450924 0.0
8.100397971125554 1.000138280273345 0.0
6.900397971125225 1.000138280273792 0.0
3.499307350770321 0.9996496628144824 0.0
5.703656022566558 0.9885479657552226 0.0
4.719420624357892 1.622286409566126 0.0
4.099803549896894 0.3600308081356619 0.0
1.286100671532495 0.3637431910670685 0.0
9.120549139677793 1.655065205594329 0.0
9.11726214008418 0.3400668903113251 0.0
4.642568097328033 0.3514924793220939 0.0
9.630437629189052 0.3309104953729904 0.0
9.674493769554315 1.668196579944218 0.0
1.936458797611609 0.3337070483410596 0.0
3.461817573918652 0.3447876019040473 0.0
8.440152788772068 1.649667667046397 0.0
6.973083089482548 1.643748677366674 0.0
3.126874515006838 1.659115470008545 0.0
6.070607878384977 0.3410183041038941 0.0
7.255014454789089 0.32792256737713 0.0
8.462493615948901 0.3368393217476116 0.0
9.236261261261264 0.9276047786917867 0.0
5.885444386845415 1.667751020273455 0.0
0.8062340689595878 0.3261579034781319 0.0
2.29463843780282 0.308358158429197 0.0
8.10536156219338 1.691641841570632 0.0
4.041916759198581 0.7211683801597477 0.0
1.324377365289917 0.710525897087282 0.0
9.023167917315867 1.292262965009952 0.0
2.044244009166302 1.693807225416931 0.0
0.7675765545556328 0.8969765944392112 0.0
2.86965991063896 0.7069213925303978 0.0
6.330340089355722 1.293078607468788 0.0
7.530340089355831 1.29307860746885 0.0
2.509347777214458 1.27231292939881 0.0
7.890652222779963 0.7276870706009825 0.0
6.690652222780154 0.7276870706013264 0.0
4.380959112578968 1.65866292149053 0.0
0.3278422400819535 1.233362752678148 0.0
5.754468991464942 0.3469215055361071 0.0
9.69195804401614 0.7000195364707393 0.0
9.691250997975434 1.303243780084337 0.0
5.54324561063747 1.237401556904767 0.0
9.044596057577811 0.6843248705785732 0.0
5.208929198448351 0.3519433027337513 0.0
3.708880196230617 1.249762029554333 0.0
1.713349558540635 1.234899745098077 0.0
4.586522821995393 0.9261740906803194 0.0
5.241145838821565 0.7007005766013242 0.0
1.434457446926135 1.701926055218157 0.0
0.2821921707428039 0.3393165318407161 0.0
3.42846431357046 1.714274134409306 0.0
5.26283485467567 1.710141275531951 0.0
3.966530105129177 1.718376080180638 0.0
4.891301048299285 1.259923533724591 0.0
0.2787500712946937 0.6906723798523376 0.0
1.822166578929051 0.7301892210727335 0.0
8.593276160688786 1.287322908694633 0.0
2.386017956680413 0.7288816957021155 0.0
3.576911792171353 0.7225526638483954 0.0
8.013982043315597 1.271118304297217 0.0
6.82303669320588 1.277631295759485 0.0
2.891837633696712 1.215141906356511 0.0
8.708162366297856 0.7848580936429009 0.0
7.496736072543097 0.7897651325976158 0.0
6.296736072542775 0.7897651325982009 0.0
5.523181420933933 0.7588744249744506 0.0
4.725538117155759 0.6529070682798582 0.0
2.736307197014292 0.273961667653487 0.0
7.663692802980817 1.726038332346062 0.0
6.446842959287713 1.783714797320288 0.0
1.126188383272983 1.743715177525389 0.0
2.64757240694847 1.787239829472812 0.0
6.546646507559373 0.2589894635657943 0.0
7.746646507561152 0.2589894635657218 0.0
4.079302268890254 1.221431431691139 0.0
4.433746883463333 0.2983726043497702 0.0
1.032697650548726 1.318076986199429 0.0
1.309492735411376 1.208980965369829 0.0
3.896105387998365 0.2579746081881307 0.0
9.378751775005455 1.725996478164223 0.0
9.3965279828929 0.2649862374471925 0.0
1.515757555362918 0.2603060454608533 0.0
4.959097093232828 1.726144293543605 0.0
4.912501341257775 0.2529154558175828 0.0
4.342421824442713 1.285376618065631 0.0
7.023506283123107 0.293611963231815 0.0
8.215829626877609 0.2682061590942965 0.0
5.28145265730745 1.291130016052329 0.0
8.693992162747364 1.744100892812201 0.0
0.6256567126095668 1.775064851453201 0.0
0.2724967459749605 1.756941612685287 0.0
8.90781713264278 0.2741674349222226 0.0
7.184202236567151 1.709454269177068 0.0
3.212962614055919 0.2641656831057426 0.0
0.6761590188374282 0.6746441670621973 0.0
1.020489328989316 0.2487299689497893 0.0
1.485017749467193 1.402133856149482 0.0
6.734223224917944 1.790518105434539 0.0
2.657549589911705 0.7636227781082678 0.0
6.542590471647475 1.237213715285722 0.0
7.742745187066703 1.235538225115726 0.0
0.5794341726414672 0.2480285055479751 0.0
1.842901067642841 1.760146518280044 0.0
3.84389577648662 0.7524680119172447 0.0
3.061589173628368 1.407936939342627 0.0
6.144447294584154 0.5911674363009913 0.0
7.344447294585433 0.5911674362995804 0.0
8.544447294586682 0.5911674362982269 0.0
5.491507940982565 0.1734458797927824 0.0
[...]
<PointData Vectors="fields">
<DataArray type="Float64" Name="U" NumberOfComponents="3" format="ascii">
0.0 0.0 0.0
0.03713190746962316 0.0 0.0
0.0030636803377312146 -0.0068195208951168885 0.0
0.018472897107192375 -0.059476996283849386 0.0
0.03393648891126119 -0.006497990623440059 0.0
0.00042280128117181326 -0.007140447295515511 0.0
0.0012069746296304287 -0.011697783128152839 0.0
0.0019113774197425152 -0.015739343968069176 0.0
0.0024991866094265357 -0.019282223064247525 0.0
0.0030166501251470976 -0.02266584870732351 0.0
0.0035173382876851544 -0.025915502683005034 0.0
0.0040206893407545505 -0.029040343327141185 0.0
0.00457309379415377 -0.032058689250827374 0.0
0.005140592177688261 -0.03497163447837564 0.0
0.005749666082839651 -0.03774656451544265 0.0
0.006385873429329967 -0.04038329862804888 0.0
0.007076137166970451 -0.04288576324560982 0.0
0.007775384113007592 -0.04523263295627393 0.0
0.008544622947742388 -0.04742537186184933 0.0
0.009308601382041716 -0.04945480662376273 0.0
0.010134534943129308 -0.05131349404176494 0.0
0.010963910039234928 -0.052984918311168756 0.0
0.011837686330950642 -0.05448241628713983 0.0
0.012723716629357128 -0.055755066540157314 0.0
0.013622058507277499 -0.05689847203449385 0.0
0.014563266408120666 -0.05781910435892014 0.0
0.015499550099745678 -0.05853416613445095 0.0
0.016466475448832195 -0.05905666991655125 0.0
0.01741634537908296 -0.05936367388921591 0.0
0.018402888997212388 -0.05947788890128311 0.0
0.019359084096515856 -0.059387877918986406 0.0
0.020313801119348947 -0.059086633282875375 0.0
0.021266786741396423 -0.058585214159183094 0.0
0.02221223885266358 -0.05787568391271534 0.0
0.023136708328746404 -0.05697276478536609 0.0
0.024084129297767695 -0.05588549643108671 0.0
0.024981840522906223 -0.054546825745882536 0.0
0.025879877227577636 -0.05308390654829521 0.0
0.02673130432914983 -0.051427958299806134 0.0
0.027574530519595297 -0.04956365247623133 0.0
0.028363429852932484 -0.047531628753076836 0.0
0.029118080558150003 -0.04534319637685773 0.0
0.02981477902804075 -0.04295953148073585 0.0
0.030493798618848437 -0.040485244117674894 0.0
0.031117637065808102 -0.037862689542993176 0.0
0.0317176202442694 -0.035096912278784774 0.0
0.03226997552050402 -0.03219835366306184 0.0
0.03280114646530134 -0.029198653959070467 0.0
0.03328803467882863 -0.02608525661037262 0.0
0.03378834595608503 -0.02285280744714433 0.0
0.034279773783609205 -0.019506528797395038 0.0
0.03482675701472194 -0.015971683197101336 0.0
0.03542946956814543 -0.012137622631621778 0.0
0.0363651955550222 -0.007587478974244406 0.0
0.031372502203691505 -0.002691119729860858 0.0
0.02765409487961381 -0.004162564114438978 0.0
0.024269462688608343 -0.005103300088987968 0.0
0.021166971248191356 -0.0058168637306220735 0.0
0.01815337565719843 -0.006263328605115105 0.0
0.015193641469223302 -0.006552132311985604 0.0
0.012234499490673262 -0.006726086830140485 0.0
0.009229519332475362 -0.006803611654515466 0.0
0.006171212930712516 -0.006819151169445414 0.0
0.003061490655590707 -0.009938094502552444 0.0
0.0030696298027609874 -0.013096358927435768 0.0
0.003127042494827104 -0.016302267550111185 0.0
0.0032594394922968173 -0.01954102351375182 0.0
0.003478273611916857 -0.022766552201916614 0.0
0.0037761116056178505 -0.025936285646360566 0.0
0.004154308210558571 -0.029065694039651393 0.0
0.004597697342292223 -0.03208488640521768 0.0
0.005108452265455111 -0.03499309089242916 0.0
0.0056924020010410085 -0.03778851229280259 0.0
0.006306077928919468 -0.04044022022793955 0.0
0.007001128096120288 -0.042955080193843316 0.0
0.007707977009050624 -0.045315854451746816 0.0
0.008486986172339957 -0.04751565911716119 0.0
0.009293518525712611 -0.04955341908164913 0.0
0.010135359031402337 -0.05141390191473902 0.0
0.010988745633440654 -0.05304886794967347 0.0
0.011888379192656132 -0.05457984072946671 0.0
0.012805459471226393 -0.05586816995474459 0.0
0.013713232625396612 -0.05696903089145999 0.0
0.014655992330710844 -0.05788283788451038 0.0
0.015622844044255159 -0.058585748771662984 0.0
0.016550297718233187 -0.0590849572534881 0.0
0.01751875941774269 -0.059385086616216526 0.0
0.019451425760132195 -0.0593479282011474 0.0
0.02038849696157372 -0.05903725752910048 0.0
0.021319028007637554 -0.0585258370452317 0.0
0.022272399796716774 -0.05782471128573722 0.0
0.023217102846436397 -0.05689541769262083 0.0
0.02415727351109679 -0.05577401419739737 0.0
0.025034583055327603 -0.054470880290749965 0.0
0.02592051838759231 -0.052974675804513635 0.0
0.026776280166090263 -0.051304893175801544 0.0
0.027617574024807443 -0.04944967918975842 0.0
0.02840246718499513 -0.04737950301539065 0.0
0.029177420955873914 -0.04521441603562669 0.0
0.029893023550823586 -0.042848567372434004 0.0
0.030565589404181682 -0.040331165382723515 0.0
0.0312166774379617 -0.03766835176585819 0.0
0.03180869242768394 -0.03486768329114518 0.0
0.03232991924305525 -0.031948637126084305 0.0
0.032812117005962226 -0.028902109630220725 0.0
0.03320426063848865 -0.025766288395956457 0.0
0.03351848477052805 -0.02254974863609227 0.0
0.03373597324825701 -0.019303596613905422 0.0
0.03386460787053125 -0.016040933448810333 0.0
0.03392679989512657 -0.012815332166956793 0.0
0.03394152397613954 -0.009631987852481667 0.0
0.030810108311176598 -0.006499676580772169 0.0
0.027733033270375393 -0.006484633628956171 0.0
0.02471611596083959 -0.006411808866445735 0.0
0.02173173089811721 -0.006242369782843793 0.0
0.018759456900583168 -0.005929046659381767 0.0
0.015727565035404248 -0.005482334926023906 0.0
0.012600007810786244 -0.004768831586346185 0.0
0.009218243921030966 -0.003784522708461358 0.0
0.005193915195600534 -0.002134810574211223 0.0
0.01811343950667232 -0.030761122765753757 0.0
0.01809037930528546 -0.04665701715037595 0.0
0.018471937001013333 -0.05683789036581535 0.0
0.018460884547648965 -0.02431296868755832 0.0
0.018127467603692944 -0.041930993646381656 0.0
0.01826197584086982 -0.054259526823658644 0.0
0.018430354265970363 -0.05979642622121929 0.0
0.021718181059227633 -0.01872854656574538 0.0
0.018870737088326893 -0.059591783039562876 0.0
0.01457233543851576 -0.03939011432077104 0.0
0.01597820065679098 -0.05250849760950058 0.0
0.01410343498254897 -0.03383326833076104 0.0
0.015439208306127 -0.04885374397658322 0.0
0.01724291978113186 -0.05797689147581474 0.0
0.02113146767477883 -0.052328925229374684 0.0
0.022347220718654387 -0.0395958415721706 0.0
0.019924137277321823 -0.057787884064541606 0.0
0.021842081403944526 -0.04889339581510838 0.0
0.023225026821599347 -0.03380857187384448 0.0
0.01745587658212594 -0.05909475851818053 0.0
0.013527437024595424 -0.022490859263827382 0.0
0.02390620976363413 -0.016370005265231913 0.0
0.012523381363966303 -0.016569395132533707 0.0
0.01835674767272867 -0.05990261629103208 0.0
0.025161985548664514 -0.026703943284416227 0.0
0.020334643524088647 -0.05796607977667731 0.0
0.018270652880376614 -0.059870274267050355 0.0
0.011915689482622473 -0.03271287906950252 0.0
0.013352061962861062 -0.045309096559298385 0.0
0.015633666554216538 -0.05598717054146686 0.0
0.010870222565413132 -0.02665485869932975 0.0
0.012630412702385385 -0.04045498908366191 0.0
0.01478344516009207 -0.05320219236495455 0.0
0.02309849595931284 -0.047708217560020555 0.0
0.021493302373115645 -0.05494423622946288 0.0
0.023730769369321607 -0.04323875352593355 0.0
0.025424678356407653 -0.026502219904903535 0.0
0.011200065199125177 -0.01404730302567011 0.0
0.019512402154684746 -0.059371955254390735 0.0
0.025783258395863807 -0.033389772631943815 0.0
0.026970581155893326 -0.013574309438716375 0.0
0.01697917530601001 -0.05910293777592 0.0
0.021970713515266662 -0.05526756331726798 0.0
0.017884939643404495 -0.013084197886770257 0.0
0.018178394116863377 -0.013061512676795738 0.0
0.01840421388824931 -0.06001420979993313 0.0
0.014868554768947285 -0.0561359667171073 0.0
0.012225288835393944 -0.04537088203148195 0.0
0.013158277750672498 -0.04956220222776523 0.0
0.02505508288157204 -0.043371061566890724 0.0
0.02575112972087121 -0.0383598014318932 0.0
0.023208177705441913 -0.051914162220426 0.0
0.018449717572485518 -0.024898454979924912 0.0
0.027545665919923124 -0.02084347718685934 0.0
0.01840541239735826 -0.0586027159221833 0.0
0.01853850237012176 -0.05082896439040771 0.0
0.01850360998942388 -0.05704277339685109 0.0
0.01855658973028345 -0.03669315400358554 0.0
0.018558919949745685 -0.04699902102011192 0.0
0.018258685539369615 -0.030922650576960913 0.0
0.018579431095700302 -0.04211051212780894 0.0
0.018380914438588226 -0.03676432945996314 0.0
0.018418775288472515 -0.05097680976891593 0.0
0.01844377087145246 -0.054249818566404574 0.0
0.018460306932472314 -0.05878126221227422 0.0
0.019275937962571873 -0.059604727876448674 0.0
0.015705940041070593 -0.0577060859260721 0.0
0.009356851322057508 -0.027435250536656727 0.0
0.008661147959355018 -0.0208899407654121 0.0
0.02833731839560378 -0.021022111869137022 0.0
0.017311822285593644 -0.05946422924159346 0.0
0.028689333289555037 -0.01161686405260164 0.0
0.008206117688964414 -0.01189690452815172 0.0
0.010025702055816892 -0.03707446145922525 0.0
0.013796594067782672 -0.0537656371894806 0.0
0.009540942000859962 -0.03164575455259447 0.0
0.012715000401980921 -0.05009277380020717 0.0
0.024041819348423223 -0.05091482414868389 0.0
0.021698768675799743 -0.056919087171855454 0.0
0.025125569516098532 -0.04718773321058479 0.0
0.027517675533140048 -0.03144182008929708 0.0
0.01920257166571058 -0.0189741615771536 0.0
0.0157096340954468 -0.05782151038582231 0.0
0.008196759406918712 -0.01949948351558142 0.0
0.010470497579395267 -0.041790419405848225 0.0
0.00955346465127464 -0.03650674181626127 0.0
0.017185405029456743 -0.05759816357206955 0.0
0.014499728206666364 -0.028061337592755448 0.0
0.014020172221882114 -0.022528561255425118 0.0
0.027070337168775993 -0.03846727959551117 0.0
0.017247820305618458 -0.01880285975074132 0.0
0.0157153955082998 -0.048560947887679284 0.0
0.016663784122256425 -0.05553787117896178 0.0
0.015233579406459051 -0.04417681302724977 0.0
0.02138909318913021 -0.044536229683952454 0.0
0.02167450072347824 -0.03962792450550577 0.0
0.020506569658859115 -0.052813268245084456 0.0
0.020375526452767113 -0.05878678202015434 0.0
0.022282879319230644 -0.011445048925442233 0.0
0.02071466918123473 -0.05836464045401249 0.0
0.022550858263776036 -0.010807521609009045 0.0
0.01363229123092477 -0.011484878746782818 0.0
0.01784798549895793 -0.05925319215405607 0.0
0.022861532558222 -0.022230044051630767 0.0
0.019044860550059196 -0.05969979704191402 0.0
0.019928153184037192 -0.055692771935721655 0.0
0.021607636456528474 -0.033933750071498715 0.0
0.01829132531728175 -0.05955621250721818 0.0
0.018751313759668382 -0.05984207492545551 0.0
0.028317121268779697 -0.02957090385699143 0.0
0.008293123591180127 -0.009450296613514904 0.0
0.023622554255379565 -0.05344509599382187 0.0
0.01758575486535595 -0.05958981069685148 0.0
0.021929629892795274 -0.05699533743603014 0.0
0.01857225397303251 -0.05993384383880303 0.0
0.01417699439858334 -0.009971723615503412 0.0
0.015040867086847178 -0.03555203264258782 0.0
0.014374796921187863 -0.0294065845441797 0.0
0.01547334384774035 -0.04306548955715221 0.0
0.016640136364384196 -0.05477737849496247 0.0
0.015046677268013542 -0.03791944889794065 0.0
0.016165130859768728 -0.051645831919195195 0.0
0.020464850140745783 -0.04878638474615867 0.0
0.02133267305543251 -0.02769426323272204 0.0
0.020667367455662743 -0.04458924525718182 0.0
0.019672749172495167 -0.05575995723589482 0.0
0.01900258598994588 -0.059307106813931504 0.0
0.017969302022736354 -0.05975139303967763 0.0
0.01118977254675025 -0.046948836954773344 0.0
0.010093012976497853 -0.04235565202973543 0.0
0.013204388243349068 -0.05442953356591234 0.0
0.029376153943060437 -0.024672435879495996 0.0
0.026651702544171072 -0.04590491075683276 0.0
0.023709931031439514 -0.05373235176611102 0.0
0.027118562287914934 -0.04133830299287986 0.0
0.0193866606049644 -0.05777819855576535 0.0
0.016516980096927862 -0.05891414123880356 0.0
0.023246554427559206 -0.023235536822785383 0.0
0.02152265650879598 -0.02774267524131505 0.0
0.014560292066223276 -0.0565820187620043 0.0
0.007414080438030359 -0.01666679095502276 0.0
0.02988417380870054 -0.016121037549558702 0.0
0.008192240093393085 -0.030951174523243308 0.0
0.018598967602483835 -0.05973522805919305 0.0
0.01809518536729445 -0.05969759714050455 0.0
0.019316875823749285 -0.058834052305636514 0.0
0.02484978655953234 -0.04956356371994551 0.0
0.028028729876415436 -0.035016857770601276 0.0
0.0180633115248802 -0.059776048793189 0.0
0.00781471207474135 -0.027705517680799586 0.0
0.03030257695608896 -0.01648280036000215 0.0
0.03013278044639448 -0.010769727445136879 0.0
0.029152417217111756 -0.024478664382111343 0.0
0.011520820130165053 -0.047904706274981855 0.0
0.012454461941323148 -0.05164209943174568 0.0
0.013877921457870087 -0.017191638026179942 0.0
0.007164610696000856 -0.02311068340286805 0.0
0.024049968445133723 -0.030439438786945636 0.0
0.012156408300956444 -0.05215006729116742 0.0
0.016061815415480372 -0.04627073572669452 0.0
0.016770317261279696 -0.05401314070738864 0.0
0.015681377498322855 -0.04153821164479585 0.0
0.00662990774659638 -0.015396645314843152 0.0
0.02837319741912946 -0.03561800634116463 0.0
0.017106615636856767 -0.0565191779534775 0.0
0.021989030397625026 -0.05041425934398619 0.0
0.02056838897943304 -0.05663027979686461 0.0
0.022585513712114785 -0.04630329589252135 0.0
0.023990981535824775 -0.030239656483255224 0.0
0.02032459711630259 -0.05905804745252119 0.0
0.015522129472981875 -0.031746515484142576 0.0
0.025574624945371317 -0.048980072944613234 0.0
0.026652143679083976 -0.04491459039776815 0.0
0.022882361358549843 -0.05576323014693363 0.0
0.02558332083622032 -0.017368618034610733 0.0
0.015421594927157284 -0.016532293501406548 0.0
0.016078736916675662 -0.0585209429939226 0.0
0.02056882105681577 -0.05664364880790497 0.0
0.009817036693492247 -0.04433068045418519 0.0
0.008687831491163353 -0.039375919282785776 0.0
0.020005584530550666 -0.05853772313222585 0.0
0.015002691011114781 -0.026524027940710668 0.0
0.024951250044281236 -0.037344319175304445 0.0
0.021135847212863268 -0.015082710012547755 0.0
0.021446021722288093 -0.057983122636233064 0.0
0.026101763808641727 -0.008932766185091784 0.0
0.01361242082652534 -0.05509781396778164 0.0
0.008137680430489638 -0.03435662198349651 0.0
0.019540925915324206 -0.05930659550730659 0.0
0.014498642519146678 -0.05679572418984571 0.0
0.021103413073783085 -0.054377815371823075 0.0
0.027793772216739565 -0.041533193660552734 0.0
0.01840765684950249 -0.05999509167678009 0.0
0.01913532184889713 -0.009943649397813059 0.0
0.017198357521322084 -0.05879922295634028 0.0
0.018059715966680143 -0.057980624376995686 0.0
0.017137323967237054 -0.03387953557953999 0.0
0.017518137816847027 -0.048878910685025284 0.0
0.017369517432335873 -0.039408202025636496 0.0
0.01769819459976387 -0.052515488236795214 0.0
0.006895680964963272 -0.023732263126301483 0.0
0.0195114203262647 -0.009469653990102942 0.0
0.023099274989853712 -0.05558351786308503 0.0
0.018447476341352825 -0.0599917934014885 0.0
0.017888493990423585 -0.05974956991117876 0.0
0.014667715676895017 -0.013186224128945295 0.0
0.029926984512565466 -0.02774019266288775 0.0
0.023335868677752745 -0.03701476175872982 0.0
0.023401117131471777 -0.041966486268984124 0.0
0.021730609345212478 -0.05108192694743337 0.0
0.014474316005928852 -0.04665471502029031 0.0
0.015114218307935004 -0.05066947009176727 0.0
0.01651222075673362 -0.05693520198521871 0.0
0.008519747440113913 -0.0393835249075078 0.0
0.007560166606290035 -0.033856685948973654 0.0
0.015386763420261417 -0.05478571198535715 0.0
0.013183580208324133 -0.04303281705021973 0.0
0.01390928008691223 -0.047561767428398107 0.0
0.021328073488636003 -0.036816151088964855 0.0
0.020608442718178396 -0.01558413842302997 0.0
0.010907906510035738 -0.009800629418567342 0.0
0.025420107983883635 -0.008436839765828177 0.0
0.019361471167963856 -0.05247818730953942 0.0
0.019895789749845978 -0.039622826770471346 0.0
0.018948150336341417 -0.057879461314193616 0.0
0.019551422644872342 -0.04881086656176867 0.0
0.01995459574039202 -0.03363539339061933 0.0
0.02864674536312897 -0.03271790607422125 0.0
0.011197294244098798 -0.007632584638653773 0.0
0.023404782700444493 -0.04566170569490393 0.0
0.02185639826937684 -0.05356482954117313 0.0
0.023983887434531018 -0.040907219121833725 0.0
0.017416709422670727 -0.044466345268627146 0.0
0.017747958338637206 -0.05277639344514776 0.0
0.017210829604125875 -0.0394602523227508 0.0
0.020112876677186736 -0.059161228282333944 0.0
0.01785818327803154 -0.055703446807887386 0.0
0.013113298097454597 -0.04150987326853957 0.0
0.012474246990980417 -0.03617669700168466 0.0
0.021769657943410063 -0.05764327595359747 0.0
0.018938648023070413 -0.05974813500216196 0.0
0.015590960494093298 -0.025152455837974638 0.0
0.01732353925464257 -0.027748027437297814 0.0
0.01690267669330367 -0.02135532445550868 0.0
0.016310009012701493 -0.0574493717574906 0.0
0.01739420486385349 -0.0338656222138956 0.0
0.009697581102735305 -0.04431582370076306 0.0
0.010942220654163061 -0.04863378964538002 0.0
0.018525409257453114 -0.05980192636326461 0.0
0.02788834292783211 -0.038922590667298654 0.0
0.0245109077374319 -0.052212580085033655 0.0
0.014325838839381896 -0.05223527269854682 0.0
0.01351421820788868 -0.048489357861212966 0.0
0.01194683907167171 -0.028661007765789673 0.0
0.030986583417873824 -0.007733702364317856 0.0
0.006338760376047758 -0.01010145943268997 0.0
0.01959464961765827 -0.021257695832995003 0.0
0.019199165446684412 -0.05875641447652039 0.0
0.018083040364619257 -0.05785934576148587 0.0
0.017688081763467315 -0.05851557814215858 0.0
0.01625237311168374 -0.009755782097675445 0.0
0.016634946245625594 -0.05910704390777585 0.0
0.03046472257834002 -0.0212987192587998 0.0
0.01748424618622375 -0.02761493469431266 0.0
0.024388643367652826 -0.014562293175707652 0.0
0.016833661985383764 -0.05827353239192259 0.0
0.01786275103064339 -0.04885740299830155 0.0
0.018017199707993894 -0.05584355499178824 0.0
0.017664188248715296 -0.044699830814014435 0.0
0.012087958187387164 -0.02559101762469027 0.0
0.012321579959806681 -0.0355847729758419 0.0
0.011758923005465709 -0.029661629097235086 0.0
0.015330308249794545 -0.05473239108735818 0.0
0.014498711582701617 -0.05154751704155997 0.0
0.018728047319964695 -0.059257688208658246 0.0
0.014812551165949404 -0.05751933310754278 0.0
0.02558811120611908 -0.023917649619996793 0.0
0.025747691691071543 -0.0338139353217293 0.0
0.023581733305332128 -0.04883913125673569 0.0
0.01787644210355285 -0.058771905935606036 0.0
0.02067901433959344 -0.05784794404896302 0.0
0.006256331733617322 -0.02799482713744649 0.0
0.011219589945373453 -0.023174312117474265 0.0
0.011785158683326509 -0.01992716431507911 0.0
0.02137503138630476 -0.030465022008598172 0.0
0.020351404155141493 -0.050526574827302884 0.0
0.020704252421357695 -0.04658181914695947 0.0
0.019582172903059362 -0.05679587925746996 0.0
0.022746561077836097 -0.052661200513440844 0.0
0.016812971637185425 -0.05072945852513504 0.0
0.017503385804149892 -0.0569681636125873 0.0
0.01648103216445757 -0.04677590996118918 0.0
0.030310594503810157 -0.013535934593171862 0.0
0.018340476741740226 -0.059416675366101644 0.0
0.02146642453432914 -0.04682885461139541 0.0
0.021678938508946338 -0.042606823830983125 0.0
0.02034789617541979 -0.05462646358198173 0.0
0.01982756255668615 -0.054104272501399264 0.0
0.013544516183198147 -0.05550502197249834 0.0
0.01878232270070342 -0.05983833630161476 0.0
0.020177100066621226 -0.050760101184446876 0.0
0.020978071186076967 -0.03647680342965574 0.0
0.020889536671654302 -0.024596898279730925 0.0
0.02460846997886807 -0.05199017114929432 0.0
0.011423030580081296 -0.013534210353082879 0.0
0.024924697751494144 -0.01283561145669133 0.0
0.027250973245617295 -0.04403667481147729 0.0
0.010318022020898978 -0.02256973893198618 0.0
0.017062048897813355 -0.05916049722089181 0.0
0.02522813576744752 -0.01951533300664514 0.0
0.024614229016990476 -0.02007343986496227 0.0
0.019449304292898414 -0.056849770234869805 0.0