<VTKFile type="UnstructuredGrid"  version="0.1">
<UnstructuredGrid>
<Piece NumberOfPoints="713" NumberOfCells="1304">
<Points>
<DataArray type="Float64" NumberOfComponents="3" format="ascii">
0.0 0.0 0.0
10.0 0.0 0.0
10.0 2.0 0.0
5.0 2.0 0.0
0.0 2.0 0.0
0.199999999999856 0.0 0.0
0.3999999999996677 0.0 0.0
0.5999999999994683 0.0 0.0
0.7999999999993286 0.0 0.0
0.9999999999991888 0.0 0.0
1.199999999999033 0.0 0.0
1.399999999998576 0.0 0.0
1.599999999997992 0.0 0.0
1.799999999997408 0.0 0.0
1.999999999996825 0.0 0.0
2.199999999996241 0.0 0.0
2.399999999995657 0.0 0.0
2.599999999995073 0.0 0.0
2.79999999999449 0.0 0.0
2.999999999993906 0.0 0.0
3.199999999993322 0.0 0.0
3.399999999992738 0.0 0.0
3.599999999992154 0.0 0.0
3.799999999991571 0.0 0.0
3.999999999991022 0.0 0.0
4.199999999991187 0.0 0.0
4.399999999991491 0.0 0.0
4.599999999991795 0.0 0.0
4.799999999992099 0.0 0.0
4.999999999992403 0.0 0.0
5.199999999992706 0.0 0.0
5.39999999999301 0.0 0.0
5.599999999993313 0.0 0.0
5.799999999993618 0.0 0.0
5.999999999993922 0.0 0.0
6.199999999994227 0.0 0.0
6.39999999999453 0.0 0.0
6.599999999994833 0.0 0.0
6.799999999995138 0.0 0.0
6.999999999995442 0.0 0.0
7.199999999995747 0.0 0.0
7.39999999999605 0.0 0.0
7.599999999996353 0.0 0.0
7.799999999996658 0.0 0.0
7.999999999996962 0.0 0.0
8.199999999997265 0.0 0.0
8.399999999997569 0.0 0.0
8.599999999997873 0.0 0.0
8.799999999998176 0.0 0.0
8.99999999999848 0.0 0.0
9.199999999998786 0.0 0.0
9.399999999999089 0.0 0.0
9.599999999999392 0.0 0.0
9.799999999999697 0.0 0.0
10.0 0.1999999999996293 0.0
10.0 0.3999999999991157 0.0
10.0 0.5999999999985328 0.0
10.0 0.7999999999979498 0.0
10.0 0.9999999999973885 0.0
10.0 1.199999999997894 0.0
10.0 1.39999999999842 0.0
10.0 1.599999999998947 0.0
10.0 1.799999999999474 0.0
9.799999999999999 2.0 0.0
9.6 2.0 0.0
9.399999999999999 2.0 0.0
9.2 2.0 0.0
8.999999999999998 2.0 0.0
8.799999999999999 2.0 0.0
8.599999999999998 2.0 0.0
8.399999999999999 2.0 0.0
8.2 2.0 0.0
7.999999999999998 2.0 0.0
7.799999999999999 2.0 0.0
7.599999999999999 2.0 0.0
7.399999999999999 2.0 0.0
7.199999999999999 2.0 0.0
7.0 2.0 0.0
6.799999999999999 2.0 0.0
6.6 2.0 0.0
6.399999999999999 2.0 0.0
6.199999999999999 2.0 0.0
5.999999999999999 2.0 0.0
5.8 2.0 0.0
5.6 2.0 0.0
5.399999999999999 2.0 0.0
5.199999999999999 2.0 0.0
4.8 2.0 0.0
4.6 2.0 0.0
4.399999999999999 2.0 0.0
4.199999999999998 2.0 0.0
3.999999999999999 2.0 0.0
3.799999999999999 2.0 0.0
3.599999999999999 2.0 0.0
3.399999999999999 2.0 0.0
3.199999999999998 2.0 0.0
2.999999999999999 2.0 0.0
2.799999999999999 2.0 0.0
2.599999999999999 2.0 0.0
2.399999999999999 2.0 0.0
2.199999999999999 2.0 0.0
2.0 2.0 0.0
1.799999999999999 2.0 0.0
1.599999999999999 2.0 0.0
1.399999999999999 2.0 0.0
1.199999999999999 2.0 0.0
0.9999999999999991 2.0 0.0
0.7999999999999998 2.0 0.0
0.5999999999999996 2.0 0.0
0.3999999999999995 2.0 0.0
0.1999999999999993 2.0 0.0
0.0 1.799999999999167 0.0
0.0 1.6 0.0
0.0 1.400000000001387 0.0
0.0 1.200000000002774 0.0
0.0 1.000000000004117 0.0
0.0 0.8000000000033287 0.0
0.0 0.6000000000024965 0.0
0.0 0.4000000000016644 0.0
0.0 0.200000000000832 0.0
1.499207686858938 0.9671416246672391 0.0
2.690335006295381 0.9619521672166851 0.0
3.892537609238439 1.007271393615351 0.0
8.916602958236062 0.9848120741100651 0.0
7.714518201951718 1.024234589865042 0.0
6.514518201951581 1.024234589865268 0.0
5.299999999999998 1.000000000000349 0.0
0.7620577975594133 1.201991596673393 0.0
4.61755859746166 1.240410629378135 0.0
2.099999999996533 0.6749999999988996 0.0
3.289480163184942 0.6802242156869155 0.0
8.299999999999976 1.325000000000064 0.0
7.110519836808121 1.319775784312006 0.0
5.893184537067197 1.292851873188582 0.0
3.268568008578649 1.341967835735878 0.0
2.118368267083699 1.321829331075689 0.0
5.930896443153832 0.6493414313150682 0.0
7.106926174231782 0.6329785805444448 0.0
8.306926174233002 0.6329785805444098 0.0
4.427960725065653 0.6389803625370323 0.0
0.9828791719046732 0.6520555711814596 0.0
9.383333333333349 0.6166666666667164 0.0
9.383333333333326 1.383333333333367 0.0
4.974443803660211 0.5526668589022862 0.0
1.248084267804327 1.464555585366204 0.0
4.139486343919472 1.468449088519687 0.0
5.077806736162063 1.478342020848787 0.0
1.629462398503482 0.5098631373669138 0.0
2.579462070540726 0.5133714280880515 0.0
3.770778974032556 0.5099482598296803 0.0
8.764748922637567 1.526880805960684 0.0
7.820537929455645 1.486628571911716 0.0
6.632254923791462 1.492045881343967 0.0
2.796478414430566 1.477149214423874 0.0
6.403521585563812 0.5228507855762514 0.0
7.603521585564883 0.5228507855756581 0.0
8.783559188644787 0.5066440811355862 0.0
0.5060338924245764 0.5082251307884346 0.0
5.451633334958382 0.4799315318847731 0.0
1.683269995544083 1.547372422998862 0.0
0.448590368789599 1.551409631210402 0.0
5.545526974704655 1.582008455135239 0.0
3.666056976948354 1.56999765613834 0.0
0.4385739326402744 0.9352922270094057 0.0
9.58170539854767 0.9922137522194456 0.0
4.93200119575972 0.9247090920592975 0.0
6.20679636316332 1.642443126922768 0.0
7.418963044745086 1.587405313446662 0.0
2.98103695524982 0.412594686552066 0.0
2.420975602092416 1.592770352831584 0.0
7.97902439790374 0.4072296471687943 0.0
6.779024397902082 0.4072296471687297 0.0
1.130444757308209 0.9859238872709168 0.0
0.8901814758011342 1.60566856081121 0.0
4.263670373274499 0.9915754392410991 0.0
3.096698167273431 1.009056907826855 0.0
6.088506433998166 0.9857489435828969 0.0
1.902225037409936 1.003483800311746 0.0
7.288506433998439 0.9857489435828686 0.0
8.498964973312972 1.005823551167602 0.0
2.307571737417198 1.008136792450924 0.0
8.100397971125554 1.000138280273345 0.0
6.900397971125225 1.000138280273792 0.0
3.499307350770321 0.9996496628144824 0.0
5.703656022566558 0.9885479657552226 0.0
4.719420624357892 1.622286409566126 0.0
4.099803549896894 0.3600308081356619 0.0
1.286100671532495 0.3637431910670685 0.0
9.120549139677793 1.655065205594329 0.0
9.11726214008418 0.3400668903113251 0.0
4.642568097328033 0.3514924793220939 0.0
9.630437629189052 0.3309104953729904 0.0
9.674493769554315 1.668196579944218 0.0
1.936458797611609 0.3337070483410596 0.0
3.461817573918652 0.3447876019040473 0.0
8.440152788772068 1.649667667046397 0.0
6.973083089482548 1.643748677366674 0.0
3.126874515006838 1.659115470008545 0.0
6.070607878384977 0.3410183041038941 0.0
7.255014454789089 0.32792256737713 0.0
8.462493615948901 0.3368393217476116 0.0
9.236261261261264 0.9276047786917867 0.0
5.885444386845415 1.667751020273455 0.0
0.8062340689595878 0.3261579034781319 0.0
2.29463843780282 0.308358158429197 0.0
8.10536156219338 1.691641841570632 0.0
4.041916759198581 0.7211683801597477 0.0
1.324377365289917 0.710525897087282 0.0
9.023167917315867 1.292262965009952 0.0
2.044244009166302 1.693807225416931 0.0
0.7675765545556328 0.8969765944392112 0.0
2.86965991063896 0.7069213925303978 0.0
6.330340089355722 1.293078607468788 0.0
7.530340089355831 1.29307860746885 0.0
2.509347777214458 1.27231292939881 0.0
7.890652222779963 0.7276870706009825 0.0
6.690652222780154 0.7276870706013264 0.0
4.380959112578968 1.65866292149053 0.0
0.3278422400819535 1.233362752678148 0.0
5.754468991464942 0.3469215055361071 0.0
9.69195804401614 0.7000195364707393 0.0
9.691250997975434 1.303243780084337 0.0
5.54324561063747 1.237401556904767 0.0
9.044596057577811 0.6843248705785732 0.0
5.208929198448351 0.3519433027337513 0.0
3.708880196230617 1.249762029554333 0.0
1.713349558540635 1.234899745098077 0.0
4.586522821995393 0.9261740906803194 0.0
5.241145838821565 0.7007005766013242 0.0
1.434457446926135 1.701926055218157 0.0
0.2821921707428039 0.3393165318407161 0.0
3.42846431357046 1.714274134409306 0.0
5.26283485467567 1.710141275531951 0.0
3.966530105129177 1.718376080180638 0.0
4.891301048299285 1.259923533724591 0.0
0.2787500712946937 0.6906723798523376 0.0
1.822166578929051 0.7301892210727335 0.0
8.593276160688786 1.287322908694633 0.0
2.386017956680413 0.7288816957021155 0.0
3.576911792171353 0.7225526638483954 0.0
8.013982043315597 1.271118304297217 0.0
6.82303669320588 1.277631295759485 0.0
2.891837633696712 1.215141906356511 0.0
8.708162366297856 0.7848580936429009 0.0
7.496736072543097 0.7897651325976158 0.0
6.296736072542775 0.7897651325982009 0.0
5.523181420933933 0.7588744249744506 0.0
4.725538117155759 0.6529070682798582 0.0
2.736307197014292 0.273961667653487 0.0
7.663692802980817 1.726038332346062 0.0
6.446842959287713 1.783714797320288 0.0
1.126188383272983 1.743715177525389 0.0
2.64757240694847 1.787239829472812 0.0
6.546646507559373 0.2589894635657943 0.0
7.746646507561152 0.2589894635657218 0.0
4.079302268890254 1.221431431691139 0.0
4.433746883463333 0.2983726043497702 0.0
1.032697650548726 1.318076986199429 0.0
1.309492735411376 1.208980965369829 0.0
3.896105387998365 0.2579746081881307 0.0
9.378751775005455 1.725996478164223 0.0
9.3965279828929 0.2649862374471925 0.0
1.515757555362918 0.2603060454608533 0.0
4.959097093232828 1.726144293543605 0.0
4.912501341257775 0.2529154558175828 0.0
4.342421824442713 1.285376618065631 0.0
7.023506283123107 0.293611963231815 0.0
8.215829626877609 0.2682061590942965 0.0
5.28145265730745 1.291130016052329 0.0
8.693992162747364 1.744100892812201 0.0
0.6256567126095668 1.775064851453201 0.0
0.2724967459749605 1.756941612685287 0.0
8.90781713264278 0.2741674349222226 0.0
7.184202236567151 1.709454269177068 0.0
3.212962614055919 0.2641656831057426 0.0
0.6761590188374282 0.6746441670621973 0.0
1.020489328989316 0.2487299689497893 0.0
1.485017749467193 1.402133856149482 0.0
6.734223224917944 1.790518105434539 0.0
2.657549589911705 0.7636227781082678 0.0
6.542590471647475 1.237213715285722 0.0
7.742745187066703 1.235538225115726 0.0
0.5794341726414672 0.2480285055479751 0.0
1.842901067642841 1.760146518280044 0.0
3.84389577648662 0.7524680119172447 0.0
3.061589173628368 1.407936939342627 0.0
6.144447294584154 0.5911674363009913 0.0
7.344447294585433 0.5911674362995804 0.0
8.544447294586682 0.5911674362982269 0.0
5.491507940982565 0.1734458797927824 0.0
[...]
<PointData Vectors="fields">
<DataArray type="Float64" Name="U" NumberOfComponents="3" format="ascii">
0.0 0.0 0.0
0.0335584453943803 0.0 0.0
0.0025695958108887854 -0.006146006753811144 0.0
0.016711103551553367 -0.05381587059923515 0.0
0.03056536360816916 -0.0056965190162658 0.0
0.00033741527811768403 -0.006317680537295102 0.0
0.0010179074668297202 -0.01040655781404329 0.0
0.0016324619156930114 -0.014027754115787926 0.0
0.002151488638030651 -0.017218893774501986 0.0
0.002609219377062327 -0.02026598593599667 0.0
0.0030538308760508746 -0.023194900136854563 0.0
0.0035033880190640607 -0.026015144668135648 0.0
0.0039980284840429965 -0.028740831018168978 0.0
0.004509074859434245 -0.031372698029456775 0.0
0.005058870706333323 -0.03388223995548973 0.0
0.005632799978776241 -0.03626906840780753 0.0
0.006254116425639991 -0.03853487665037569 0.0
0.00688197107631518 -0.04066229994927214 0.0
0.007569366725118893 -0.04265191086750352 0.0
0.008251564777787278 -0.04449684063885518 0.0
0.008987244578016388 -0.04618985027052671 0.0
0.009724855880953887 -0.04771789545842125 0.0
0.010501665005232814 -0.049091687699334884 0.0
0.011286286608524109 -0.05026783690941018 0.0
0.012081225321042152 -0.05132691600343188 0.0
0.012911705543838336 -0.05218868100015588 0.0
0.013736073631991166 -0.052866518830440704 0.0
0.014588555582452286 -0.053371444136859396 0.0
0.015431104615976842 -0.05368333089936834 0.0
0.016313337633983915 -0.05381886624119224 0.0
0.01717703308749234 -0.05376827637743116 0.0
0.018048478124265743 -0.05352625775094857 0.0
0.018925503561736747 -0.053099870704877906 0.0
0.019801733711221105 -0.052481726715152534 0.0
0.02066404878067623 -0.05168524359896438 0.0
0.021550723083357176 -0.05071684607497917 0.0
0.022392296749695905 -0.049519963007891056 0.0
0.02323341151386292 -0.04820626251917866 0.0
0.02403049063728718 -0.046716067074342595 0.0
0.024816381819196685 -0.04503613433791907 0.0
0.02555004881745627 -0.04320246859007413 0.0
0.026251475725199865 -0.04122393067461901 0.0
0.026898356334946017 -0.03906727652851831 0.0
0.027530433761610778 -0.03682263875692734 0.0
0.028114035638197907 -0.03443974246739787 0.0
0.02867631393180153 -0.03192131401691334 0.0
0.029193586061666745 -0.029278617735884728 0.0
0.029687658932894267 -0.02654067756356445 0.0
0.030137253071783394 -0.023699169631147654 0.0
0.030593625433224834 -0.020750402384559236 0.0
0.031038803188338286 -0.01769880786122496 0.0
0.0315319344395424 -0.014480453109853655 0.0
0.03207887043365988 -0.010994625040870704 0.0
0.032923575664279434 -0.006853257869795781 0.0
0.02834177606867748 -0.0024210906718917513 0.0
0.0249505108683979 -0.003753732623164205 0.0
0.021871341665196928 -0.004601101283725614 0.0
0.019041965527724223 -0.005240917753530838 0.0
0.01629758957919891 -0.0056430780505133445 0.0
0.01360278184268204 -0.005904579238613346 0.0
0.010910129562517475 -0.006061818053366258 0.0
0.008177274975164878 -0.00613181377819622 0.0
0.00539569112613633 -0.00614595611602736 0.0
0.0025674602768003965 -0.008982250777010892 0.0
0.0025748304823242675 -0.01185477310410144 0.0
0.0026265497707982886 -0.014771970441180055 0.0
0.0027467416280297576 -0.01772085722270743 0.0
0.002948040820078648 -0.020661502187117476 0.0
0.0032252673380537087 -0.023556144890130453 0.0
0.003582486671536494 -0.026414883265758363 0.0
0.00400405160622837 -0.029174354468668277 0.0
0.00448835532408339 -0.031831069011492845 0.0
0.005037726668515826 -0.0343786763796747 0.0
0.005607950470922798 -0.03679066480844071 0.0
0.006245535639205312 -0.0390718344667272 0.0
0.006888215284874393 -0.041209773799919074 0.0
0.007592460650840486 -0.04319759887129613 0.0
0.008320230038258372 -0.04503626304159078 0.0
0.00908150602736769 -0.0467119551184046 0.0
0.009854536684548918 -0.048183572113114165 0.0
0.010672509532760558 -0.04955530945243896 0.0
0.01151011457760193 -0.0507058978354282 0.0
0.012340475077422555 -0.051683572591613054 0.0
0.013203152249891336 -0.05248834453871196 0.0
0.01408787570084024 -0.05309821875668608 0.0
0.014939319939744213 -0.05352237147971364 0.0
0.015830229530182177 -0.05376391657152777 0.0
0.017615737207559188 -0.05366730000596128 0.0
0.01848337716317928 -0.05335270785616395 0.0
0.019343440337421917 -0.052857739275230575 0.0
0.020218124772573606 -0.052191133957345995 0.0
0.021074577402238507 -0.05132138628660514 0.0
0.021917095573743425 -0.05028050535813856 0.0
0.022695982503070346 -0.049078159359699496 0.0
0.023474995978887254 -0.04770648186611981 0.0
0.024223185665819144 -0.04618055282418527 0.0
0.02495789825109063 -0.0444913562268401 0.0
0.025644490367652713 -0.042614486062328094 0.0
0.02632604147358052 -0.04064885569989288 0.0
0.026962679868576978 -0.03850571888582369 0.0
0.027564769903057694 -0.03622652957590209 0.0
0.028149588347899292 -0.03381691289370606 0.0
0.028681320836903047 -0.03128310971246142 0.0
0.029147646010465544 -0.028644014393316368 0.0
0.02957543862932625 -0.025893926376411924 0.0
0.02992128050879712 -0.02306491596439774 0.0
0.030196790095868124 -0.02016639072490539 0.0
0.030387444968784042 -0.017241177338066262 0.0
0.03050095275210866 -0.014302092112263149 0.0
0.030556548359386974 -0.011394235584600136 0.0
0.030569641852358744 -0.00852355458360173 0.0
0.027745248497199435 -0.005697970270488912 0.0
0.024968788857642556 -0.005683983794399487 0.0
0.022244857233794543 -0.005618662628390289 0.0
0.019550175278602616 -0.005468251244890996 0.0
0.016864219205869346 -0.005190812333499526 0.0
0.014126693272386076 -0.004797892528473742 0.0
0.01130328239564182 -0.004171163555284203 0.0
0.008256808912565413 -0.0033065095612438123 0.0
0.004651238106512297 -0.0018669862241351455 0.0
0.01625842711087911 -0.027515217926767796 0.0
0.016252371301823793 -0.041870209825934736 0.0
0.016601655910488122 -0.05115333934029344 0.0
0.016610241370035583 -0.022039599477818327 0.0
0.01631184000224983 -0.03807316378026246 0.0
0.016397530873348824 -0.04918365165527757 0.0
0.016526486082774877 -0.054056181181144816 0.0
0.019516780409060547 -0.01669925723214419 0.0
0.0169851673584539 -0.0537641745330818 0.0
0.013052093123347916 -0.035309400613582495 0.0
0.014318508898896633 -0.0471908149633362 0.0
0.012663813508121598 -0.030731464407967465 0.0
0.013871021164425953 -0.04432687851080336 0.0
0.015484699700799515 -0.05249989491728707 0.0
0.01905114876188172 -0.047023049264737125 0.0
0.020111638348618736 -0.03549828364366843 0.0
0.01783084366056797 -0.05233954025151089 0.0
0.019651520770593373 -0.0443652787592137 0.0
0.020944653167539767 -0.030705861108848532 0.0
0.015603870678648084 -0.053283040488286686 0.0
0.012096181121870334 -0.020071882413718926 0.0
0.02158507257120999 -0.014815605322429922 0.0
0.011187654522244987 -0.015001572710142845 0.0
0.016376549329621286 -0.054115323549563735 0.0
0.022648983269073112 -0.023875232083567878 0.0
0.018367875576066086 -0.052233557653145475 0.0
0.016456022863666736 -0.0541117772422382 0.0
0.010639846425662238 -0.029287184744455925 0.0
0.01194468808970149 -0.040670242201382004 0.0
0.013975280581217 -0.05039445578659856 0.0
0.00969837312404025 -0.024187170575625177 0.0
0.011346066792406273 -0.03675445140658241 0.0
0.013269072082597345 -0.04825332210816172 0.0
0.020818925267422073 -0.04283932280088783 0.0
0.019276902460327337 -0.04981665506356752 0.0
0.021379491470395837 -0.03926854775199789 0.0
0.022965557296796366 -0.024044297855138605 0.0
0.009991915225646122 -0.012488851433438605 0.0
0.017406104948866224 -0.053721841917034774 0.0
0.02322265224768222 -0.029905988768701788 0.0
0.024274816794908786 -0.012072574448938295 0.0
0.015276533987049498 -0.05349615459176586 0.0
0.019864322776473275 -0.0497369322542007 0.0
0.016044571919833668 -0.01162882050224642 0.0
0.01634599034582022 -0.011815122564423783 0.0
0.016495596841824264 -0.05419121209666053 0.0
0.01335327665103297 -0.050893669615591094 0.0
0.010976557463603244 -0.04120712042498963 0.0
0.011757157065273086 -0.044534437396626506 0.0
0.022576503195159026 -0.03892700449497884 0.0
0.023229337655251946 -0.03485513563325201 0.0
0.020858304461796887 -0.04710448968268995 0.0
0.016557467206329578 -0.022237332536017593 0.0
0.02479894941892409 -0.018611589526954807 0.0
0.016529944864337492 -0.05280222153387813 0.0
0.01666499164683341 -0.04564978416825815 0.0
0.016598693584568842 -0.051669963484976524 0.0
0.016666536791707973 -0.032868537526022194 0.0
0.016693014621303875 -0.04264638535324684 0.0
0.016429893625752492 -0.02807155328007599 0.0
0.016692766143940288 -0.037761534617373985 0.0
0.01654322616200686 -0.033392435217856745 0.0
0.01655368023880652 -0.046231002374455286 0.0
0.016579285945738514 -0.04876885521593575 0.0
0.01655137317387054 -0.0531978899451428 0.0
0.017408562071267984 -0.05382823748339505 0.0
0.014003544812950224 -0.05200713179545613 0.0
0.008324313424625045 -0.02453333820190012 0.0
0.007671842974873262 -0.018936637030038967 0.0
0.025626737057943216 -0.019053316191012193 0.0
0.015409444218916626 -0.053682619850509386 0.0
0.025950514012452474 -0.01050130451473363 0.0
0.007249729763745131 -0.010761293590565654 0.0
0.008929301816149572 -0.0332380098273905 0.0
0.01231269676847198 -0.048372773774223006 0.0
0.00850933731137934 -0.02874937890416196 0.0
0.011407419940804504 -0.04547048278932813 0.0
0.021711379205115285 -0.04576661263414449 0.0
0.01940664248598004 -0.05159417335575857 0.0
0.022626995389504308 -0.042851714510641306 0.0
0.024863265875604824 -0.02856031603568982 0.0
0.017286755429987147 -0.017179923420470908 0.0
0.014122965233945415 -0.052389855799089384 0.0
0.007281282649841669 -0.017387442242956883 0.0
0.009332237271192347 -0.037504482430898475 0.0
0.008544685860132102 -0.033183663244896903 0.0
0.015391775990460814 -0.051867715328043726 0.0
0.012979357425078641 -0.025083920838672853 0.0
0.012558633992842112 -0.020417479211373792 0.0
0.024394992837092316 -0.03450397647943866 0.0
0.015463324117176035 -0.016760469114033474 0.0
0.014089192077514856 -0.04360134145822903 0.0
0.014960579620468489 -0.05033412524980286 0.0
0.013697137644023768 -0.040108137734750304 0.0
0.019250210034894962 -0.03995905822223628 0.0
0.019523671930245838 -0.03599209884521178 0.0
0.01842318662028431 -0.04789119188965502 0.0
0.018432404706437488 -0.05303627471731962 0.0
0.020033277116253793 -0.010156364397306501 0.0
0.018486989999569263 -0.05286743113382785 0.0
0.020338655507724346 -0.009773413702117904 0.0
0.012192763966762894 -0.010385064622318717 0.0
0.016030342256204016 -0.053606531224427295 0.0
0.020629230744881825 -0.020143543229436893 0.0
0.016954756062897123 -0.05399399889914752 0.0
0.017960105160092735 -0.0501003593732155 0.0
0.01943390912216336 -0.030381739228031338 0.0
0.01640418991562413 -0.05371740327903442 0.0
0.016759620481229608 -0.054095348942520646 0.0
0.02551303503037359 -0.026471071877727893 0.0
0.007372814654875574 -0.008373264041048866 0.0
0.021366282761222693 -0.048083240501618836 0.0
0.015851077020987737 -0.05391200832628263 0.0
0.01986258370944221 -0.051357794862813784 0.0
0.01670757493075247 -0.05412224852411389 0.0
0.012692256028266399 -0.008836666121690177 0.0
0.013474575590931336 -0.03184138357019558 0.0
0.012896408660905204 -0.026691892190624327 0.0
0.013871719017969983 -0.03862911819206616 0.0
0.014914557460016678 -0.04926266056166496 0.0
0.013528357625294607 -0.034446230638890206 0.0
0.014517811949660557 -0.04683954922365227 0.0
0.01842101993664006 -0.04380047942242466 0.0
0.019229974770640406 -0.025125422137364906 0.0
0.018602748210529665 -0.04047628330488376 0.0
0.017645826463536338 -0.05053213437306948 0.0
0.017000090282453088 -0.05365399275564757 0.0
0.01605556407806741 -0.05392667496683432 0.0
0.009975714340522386 -0.04217899260457211 0.0
0.009048276908018606 -0.038494994909725216 0.0
0.011850739727548243 -0.04938669521311977 0.0
0.026460800974941037 -0.022061553441506634 0.0
0.024039682299617685 -0.04124161637204145 0.0
0.021278063242506407 -0.048754081927287134 0.0
0.024460663089534165 -0.037568435124138266 0.0
0.01746360645841971 -0.05203603215839658 0.0
0.014699792600771436 -0.05315886546264664 0.0
0.020906722903461177 -0.020750625354157066 0.0
0.019348930309329906 -0.0248007612720609 0.0
0.012971350723918019 -0.05097935167847123 0.0
0.006531706772178709 -0.015097491197756255 0.0
0.027037090781506443 -0.014593674357150057 0.0
0.007269898026596326 -0.027713212471887374 0.0
0.016791499177266415 -0.05399876665368072 0.0
0.01608260419923148 -0.05395604781670592 0.0
0.01740642313003876 -0.05303597540056695 0.0
0.0223607149182334 -0.04499827763316641 0.0
0.025315916312512246 -0.03182383644469963 0.0
0.016237657330897187 -0.05404376268169326 0.0
0.006918050476696677 -0.025156149745243942 0.0
0.027286911949621313 -0.014694329309154566 0.0
0.02713315514570327 -0.009548632435833398 0.0
0.02636812420884482 -0.022209385303626927 0.0
0.010334093462355993 -0.043506516403757696 0.0
0.01110346177770848 -0.046445409371051474 0.0
0.012411350374633978 -0.015311173790301742 0.0
0.006347654758247711 -0.02064367014450866 0.0
0.021646373365946023 -0.027236965558939032 0.0
0.010901993241686565 -0.047341441302689656 0.0
0.014406618402458438 -0.041525475748633925 0.0
0.0150574455805603 -0.04896590350812198 0.0
0.014103636116806862 -0.037722304631735926 0.0
0.0058720135552009336 -0.013701889390997002 0.0
0.0255724856756504 -0.03193553059176097 0.0
0.01533225424033112 -0.05086561717464022 0.0
0.019824656438753998 -0.04528683505684966 0.0
0.018422026241208877 -0.05131777697337962 0.0
0.020333180805420605 -0.042032500351616243 0.0
0.0216507585617169 -0.02745249884143 0.0
0.018089934711543874 -0.05348320900725333 0.0
0.013908524954219252 -0.028405333480229944 0.0
0.02308861693571891 -0.04402512665376753 0.0
0.024021081137176256 -0.04080830679593715 0.0
0.02048882476655808 -0.05057611485809688 0.0
0.023018663496051674 -0.015483658164374966 0.0
0.013831436393493116 -0.01496488313321321 0.0
0.014467508057113766 -0.0530082004008477 0.0
0.018570145954222107 -0.05099159796443461 0.0
0.008736432055349009 -0.039814737023042765 0.0
0.00776884858444466 -0.03580051321374715 0.0
0.017875305392427668 -0.05300257932574399 0.0
0.01346061263471707 -0.024059026005721018 0.0
0.022472077241415388 -0.033475675549684024 0.0
0.018989649755201666 -0.013425171278681352 0.0
0.019432294965435568 -0.052295327427699316 0.0
0.02349326820753051 -0.007892523007572164 0.0
0.01212560902028149 -0.04961379827669182 0.0
0.007220176963028483 -0.030792434515646543 0.0
0.01764009533798307 -0.053513484398380905 0.0
0.013030242403430786 -0.05149842045363097 0.0
0.019043932293958718 -0.04889986728740488 0.0
0.02505549853864218 -0.03728697131972033 0.0
0.016523926682452873 -0.054200458316786354 0.0
0.01718601408400374 -0.008807656958705785 0.0
0.01545599623349441 -0.053223225061288515 0.0
0.01620484536397789 -0.052498458186391345 0.0
0.015414781047681111 -0.03076891384027201 0.0
0.01574827131421698 -0.044341715073815485 0.0
0.015591243608513966 -0.035320694324998084 0.0
0.015894874398135403 -0.047186680533095236 0.0
0.006067637886243589 -0.021531852104767657 0.0
0.017552768070857417 -0.008557751958275139 0.0
0.020926607822938016 -0.05006015616879141 0.0
0.016502790226956297 -0.05419055711098552 0.0
0.016102564724707356 -0.05402965096653277 0.0
0.013128056406405398 -0.011719756405534862 0.0
0.02706964920064519 -0.025190956443581783 0.0
0.021037418423601732 -0.033624064157635754 0.0
0.02107214974329842 -0.0376455677921447 0.0
0.019537621690187107 -0.0463393397658233 0.0
0.013005866685180476 -0.04234901168311476 0.0
0.013535720526485436 -0.04552160512617263 0.0
0.014828241813011648 -0.05158370873792687 0.0
0.007565868477137064 -0.035339905186075084 0.0
0.006717455769446992 -0.030777334637207582 0.0
0.013812433998083778 -0.04967177319427419 0.0
0.01184667011616065 -0.0390850962805665 0.0
0.0124471896022649 -0.04270821579180562 0.0
0.019183212171083635 -0.03298373758707496 0.0
0.018570741697252473 -0.014101981432286062 0.0
0.009707846095947796 -0.008855928601772778 0.0
0.0229543618064201 -0.007625773260130281 0.0
0.017422626237338226 -0.04715110917565701 0.0
0.017885624011503308 -0.035515864026601125 0.0
0.016981510220952418 -0.05241134228006903 0.0
0.017583682871220224 -0.044281059806313916 0.0
0.017970975510886607 -0.030545207572124013 0.0
0.02581707809655132 -0.029314284276722564 0.0
0.010005867000477247 -0.0067437732441461866 0.0
0.0210861259755174 -0.04098731729703601 0.0
0.019624245349114264 -0.048578526152955645 0.0
0.021615357635949833 -0.037158225812944076 0.0
0.01563828303249664 -0.039890321615225384 0.0
0.015941616643877738 -0.04785109178828441 0.0
0.015485331733081609 -0.035838772471233876 0.0
0.018204732644214308 -0.053422925544741776 0.0
0.01603463752287718 -0.050105164125967425 0.0
0.011728901529316658 -0.037232128114397835 0.0
0.01119504587029257 -0.03287028573975022 0.0
0.019436614398123334 -0.05224958298383958 0.0
0.01706722012439119 -0.053935303360837135 0.0
0.01396594894753977 -0.022464698826419938 0.0
0.015538929801317452 -0.024800670420849835 0.0
0.015186630604655965 -0.019346177663618434 0.0
0.014576526169354245 -0.05174645146716507 0.0
0.015608421262564892 -0.030315524036787174 0.0
0.008690009960762022 -0.040276534279842256 0.0
0.009743881957108107 -0.04371692030973004 0.0
0.01663800537591431 -0.053963433875924866 0.0
0.025171246505081984 -0.03537912984237235 0.0
0.022023168954607427 -0.04739127882296081 0.0
0.012808591884070231 -0.046959121249905325 0.0
0.012133126607255563 -0.04401271165944996 0.0
0.010667241239731564 -0.025630094664350133 0.0
0.028033223932816324 -0.0069880222996303734 0.0
0.005549443824924577 -0.009130151024719408 0.0
0.01759232577962524 -0.018967041596695437 0.0
0.017182744733980713 -0.05318120278575196 0.0
0.0162309075729944 -0.052103790135244105 0.0
0.015847633779019744 -0.052723003041783276 0.0
0.014578055174454825 -0.008815603569725898 0.0
0.014986738888466411 -0.05351971773252046 0.0
0.027438400098193528 -0.019028676392654154 0.0
0.015722309023247186 -0.02505238713749275 0.0
0.021937130944134735 -0.012959686282907355 0.0
0.015044695302128238 -0.052511193566590966 0.0
0.016046787671299703 -0.04386172164729033 0.0
0.016171526772600017 -0.050602166902696234 0.0
0.015890115137125023 -0.040573262758145094 0.0
0.010794915656662166 -0.02286275416930238 0.0
0.011008818407809155 -0.03187917079298457 0.0
0.010518369168875876 -0.02693051113521129 0.0
0.013710293285353798 -0.049238148755507305 0.0
0.013014523121130538 -0.046764053314081684 0.0
0.016838582179032145 -0.05342899612547533 0.0
0.013170344291933558 -0.05187005435507884 0.0
0.023030412731372466 -0.02136935429311351 0.0
0.02324193898966322 -0.030717457544806114 0.0
0.021221789947036176 -0.04433033080377865 0.0
0.01604777199488953 -0.05319099022960644 0.0
0.018481657085027303 -0.05240505534896135 0.0
0.005523143538050829 -0.025055133152310782 0.0
0.01000743107110247 -0.02101125604677412 0.0
0.01051794781776731 -0.01805402472904234 0.0
0.019266141160223217 -0.02765442670533478 0.0
0.018324442844787497 -0.04537784488770502 0.0
0.018631541247400584 -0.04227439063846637 0.0
0.017551462091629624 -0.05145595389628161 0.0
0.020544814993178173 -0.04734538991825529 0.0
0.015087221524135927 -0.04556418345491489 0.0
0.015712200103687006 -0.05160519952678152 0.0
0.014817828829700456 -0.04244839096196643 0.0
0.02729297002811992 -0.012040952190790962 0.0
0.01645051022692524 -0.05374299443180577 0.0
0.019327397084351834 -0.0420313961283693 0.0
0.019521815790054166 -0.03868808872318141 0.0
0.01826145090299558 -0.0495205877604484 0.0
0.017857969341314953 -0.048638147193361264 0.0
0.01216338520975203 -0.05035358989075434 0.0
0.016750589170089116 -0.0540929509569926 0.0
0.01814007665476862 -0.04603981527632191 0.0
0.0188971162000108 -0.033131312973053224 0.0
0.0188271029648112 -0.022298823554589172 0.0
0.02224892381390187 -0.046763099529867264 0.0
0.010181950188162285 -0.012247065421807955 0.0
0.022513155591364787 -0.011608688965862568 0.0
0.02457228060062379 -0.03955242241056729 0.0
0.009195151456569052 -0.020147018677813256 0.0
0.015211523078766274 -0.05337121636739057 0.0
0.02279236389379117 -0.01767445261567576 0.0
0.02214275708237631 -0.01791202082753547 0.0