<VTKFile type="UnstructuredGrid"  version="0.1">
<UnstructuredGrid>
<Piece NumberOfPoints="713" NumberOfCells="1304">
<Points>
<DataArray type="Float64" NumberOfComponents="3" format="ascii">
0.0 0.0 0.0
10.0 0.0 0.0
10.0 2.0 0.0
5.0 2.0 0.0
0.0 2.0 0.0
0.199999999999856 0.0 0.0
0.3999999999996677 0.0 0.0
0.5999999999994683 0.0 0.0
0.7999999999993286 0.0 0.0
0.9999999999991888 0.0 0.0
1.199999999999033 0.0 0.0
1.399999999998576 0.0 0.0
1.599999999997992 0.0 0.0
1.799999999997408 0.0 0.0
1.999999999996825 0.0 0.0
2.199999999996241 0.0 0.0
2.399999999995657 0.0 0.0
2.599999999995073 0.0 0.0
2.79999999999449 0.0 0.0
2.999999999993906 0.0 0.0
3.199999999993322 0.0 0.0
3.399999999992738 0.0 0.0
3.599999999992154 0.0 0.0
3.799999999991571 0.0 0.0
3.999999999991022 0.0 0.0
4.199999999991187 0.0 0.0
4.399999999991491 0.0 0.0
4.599999999991795 0.0 0.0
4.799999999992099 0.0 0.0
4.999999999992403 0.0 0.0
5.199999999992706 0.0 0.0
5.39999999999301 0.0 0.0
5.599999999993313 0.0 0.0
5.799999999993618 0.0 0.0
5.999999999993922 0.0 0.0
6.199999999994227 0.0 0.0
6.39999999999453 0.0 0.0
6.599999999994833 0.0 0.0
6.799999999995138 0.0 0.0
6.999999999995442 0.0 0.0
7.199999999995747 0.0 0.0
7.39999999999605 0.0 0.0
7.599999999996353 0.0 0.0
7.799999999996658 0.0 0.0
7.999999999996962 0.0 0.0
8.199999999997265 0.0 0.0
8.399999999997569 0.0 0.0
8.599999999997873 0.0 0.0
8.799999999998176 0.0 0.0
8.99999999999848 0.0 0.0
9.199999999998786 0.0 0.0
9.399999999999089 0.0 0.0
9.599999999999392 0.0 0.0
9.799999999999697 0.0 0.0
10.0 0.1999999999996293 0.0
10.0 0.3999999999991157 0.0
10.0 0.5999999999985328 0.0
10.0 0.7999999999979498 0.0
10.0 0.9999999999973885 0.0
10.0 1.199999999997894 0.0
10.0 1.39999999999842 0.0
10.0 1.599999999998947 0.0
10.0 1.799999999999474 0.0
9.799999999999999 2.0 0.0
9.6 2.0 0.0
9.399999999999999 2.0 0.0
9.2 2.0 0.0
8.999999999999998 2.0 0.0
8.799999999999999 2.0 0.0
8.599999999999998 2.0 0.0
8.399999999999999 2.0 0.0
8.2 2.0 0.0
7.999999999999998 2.0 0.0
7.799999999999999 2.0 0.0
7.599999999999999 2.0 0.0
7.399999999999999 2.0 0.0
7.199999999999999 2.0 0.0
7.0 2.0 0.0
6.799999999999999 2.0 0.0
6.6 2.0 0.0
6.399999999999999 2.0 0.0
6.199999999999999 2.0 0.0
5.999999999999999 2.0 0.0
5.8 2.0 0.0
5.6 2.0 0.0
5.399999999999999 2.0 0.0
5.199999999999999 2.0 0.0
4.8 2.0 0.0
4.6 2.0 0.0
4.399999999999999 2.0 0.0
4.199999999999998 2.0 0.0
3.999999999999999 2.0 0.0
3.799999999999999 2.0 0.0
3.599999999999999 2.0 0.0
3.399999999999999 2.0 0.0
3.199999999999998 2.0 0.0
2.999999999999999 2.0 0.0
2.799999999999999 2.0 0.0
2.599999999999999 2.0 0.0
2.399999999999999 2.0 0.0
2.199999999999999 2.0 0.0
2.0 2.0 0.0
1.799999999999999 2.0 0.0
1.599999999999999 2.0 0.0
1.399999999999999 2.0 0.0
1.199999999999999 2.0 0.0
0.9999999999999991 2.0 0.0
0.7999999999999998 2.0 0.0
0.5999999999999996 2.0 0.0
0.3999999999999995 2.0 0.0
0.1999999999999993 2.0 0.0
0.0 1.799999999999167 0.0
0.0 1.6 0.0
0.0 1.400000000001387 0.0
0.0 1.200000000002774 0.0
0.0 1.000000000004117 0.0
0.0 0.8000000000033287 0.0
0.0 0.6000000000024965 0.0
0.0 0.4000000000016644 0.0
0.0 0.200000000000832 0.0
1.499207686858938 0.9671416246672391 0.0
2.690335006295381 0.9619521672166851 0.0
3.892537609238439 1.007271393615351 0.0
8.916602958236062 0.9848120741100651 0.0
7.714518201951718 1.024234589865042 0.0
6.514518201951581 1.024234589865268 0.0
5.299999999999998 1.000000000000349 0.0
0.7620577975594133 1.201991596673393 0.0
4.61755859746166 1.240410629378135 0.0
2.099999999996533 0.6749999999988996 0.0
3.289480163184942 0.6802242156869155 0.0
8.299999999999976 1.325000000000064 0.0
7.110519836808121 1.319775784312006 0.0
5.893184537067197 1.292851873188582 0.0
3.268568008578649 1.341967835735878 0.0
2.118368267083699 1.321829331075689 0.0
5.930896443153832 0.6493414313150682 0.0
7.106926174231782 0.6329785805444448 0.0
8.306926174233002 0.6329785805444098 0.0
4.427960725065653 0.6389803625370323 0.0
0.9828791719046732 0.6520555711814596 0.0
9.383333333333349 0.6166666666667164 0.0
9.383333333333326 1.383333333333367 0.0
4.974443803660211 0.5526668589022862 0.0
1.248084267804327 1.464555585366204 0.0
4.139486343919472 1.468449088519687 0.0
5.077806736162063 1.478342020848787 0.0
1.629462398503482 0.5098631373669138 0.0
2.579462070540726 0.5133714280880515 0.0
3.770778974032556 0.5099482598296803 0.0
8.764748922637567 1.526880805960684 0.0
7.820537929455645 1.486628571911716 0.0
6.632254923791462 1.492045881343967 0.0
2.796478414430566 1.477149214423874 0.0
6.403521585563812 0.5228507855762514 0.0
7.603521585564883 0.5228507855756581 0.0
8.783559188644787 0.5066440811355862 0.0
0.5060338924245764 0.5082251307884346 0.0
5.451633334958382 0.4799315318847731 0.0
1.683269995544083 1.547372422998862 0.0
0.448590368789599 1.551409631210402 0.0
5.545526974704655 1.582008455135239 0.0
3.666056976948354 1.56999765613834 0.0
0.4385739326402744 0.9352922270094057 0.0
9.58170539854767 0.9922137522194456 0.0
4.93200119575972 0.9247090920592975 0.0
6.20679636316332 1.642443126922768 0.0
7.418963044745086 1.587405313446662 0.0
2.98103695524982 0.412594686552066 0.0
2.420975602092416 1.592770352831584 0.0
7.97902439790374 0.4072296471687943 0.0
6.779024397902082 0.4072296471687297 0.0
1.130444757308209 0.9859238872709168 0.0
0.8901814758011342 1.60566856081121 0.0
4.263670373274499 0.9915754392410991 0.0
3.096698167273431 1.009056907826855 0.0
6.088506433998166 0.9857489435828969 0.0
1.902225037409936 1.003483800311746 0.0
7.288506433998439 0.9857489435828686 0.0
8.498964973312972 1.005823551167602 0.0
2.307571737417198 1.008136792450924 0.0
8.100397971125554 1.000138280273345 0.0
6.900397971125225 1.000138280273792 0.0
3.499307350770321 0.9996496628144824 0.0
5.703656022566558 0.9885479657552226 0.0
4.719420624357892 1.622286409566126 0.0
4.099803549896894 0.3600308081356619 0.0
1.286100671532495 0.3637431910670685 0.0
9.120549139677793 1.655065205594329 0.0
9.11726214008418 0.3400668903113251 0.0
4.642568097328033 0.3514924793220939 0.0
9.630437629189052 0.3309104953729904 0.0
9.674493769554315 1.668196579944218 0.0
1.936458797611609 0.3337070483410596 0.0
3.461817573918652 0.3447876019040473 0.0
8.440152788772068 1.649667667046397 0.0
6.973083089482548 1.643748677366674 0.0
3.126874515006838 1.659115470008545 0.0
6.070607878384977 0.3410183041038941 0.0
7.255014454789089 0.32792256737713 0.0
8.462493615948901 0.3368393217476116 0.0
9.236261261261264 0.9276047786917867 0.0
5.885444386845415 1.667751020273455 0.0
0.8062340689595878 0.3261579034781319 0.0
2.29463843780282 0.308358158429197 0.0
8.10536156219338 1.691641841570632 0.0
4.041916759198581 0.7211683801597477 0.0
1.324377365289917 0.710525897087282 0.0
9.023167917315867 1.292262965009952 0.0
2.044244009166302 1.693807225416931 0.0
0.7675765545556328 0.8969765944392112 0.0
2.86965991063896 0.7069213925303978 0.0
6.330340089355722 1.293078607468788 0.0
7.530340089355831 1.29307860746885 0.0
2.509347777214458 1.27231292939881 0.0
7.890652222779963 0.7276870706009825 0.0
6.690652222780154 0.7276870706013264 0.0
4.380959112578968 1.65866292149053 0.0
0.3278422400819535 1.233362752678148 0.0
5.754468991464942 0.3469215055361071 0.0
9.69195804401614 0.7000195364707393 0.0
9.691250997975434 1.303243780084337 0.0
5.54324561063747 1.237401556904767 0.0
9.044596057577811 0.6843248705785732 0.0
5.208929198448351 0.3519433027337513 0.0
3.708880196230617 1.249762029554333 0.0
1.713349558540635 1.234899745098077 0.0
4.586522821995393 0.9261740906803194 0.0
5.241145838821565 0.7007005766013242 0.0
1.434457446926135 1.701926055218157 0.0
0.2821921707428039 0.3393165318407161 0.0
3.42846431357046 1.714274134409306 0.0
5.26283485467567 1.710141275531951 0.0
3.966530105129177 1.718376080180638 0.0
4.891301048299285 1.259923533724591 0.0
0.2787500712946937 0.6906723798523376 0.0
1.822166578929051 0.7301892210727335 0.0
8.593276160688786 1.287322908694633 0.0
2.386017956680413 0.7288816957021155 0.0
3.576911792171353 0.7225526638483954 0.0
8.013982043315597 1.271118304297217 0.0
6.82303669320588 1.277631295759485 0.0
2.891837633696712 1.215141906356511 0.0
8.708162366297856 0.7848580936429009 0.0
7.496736072543097 0.7897651325976158 0.0
6.296736072542775 0.7897651325982009 0.0
5.523181420933933 0.7588744249744506 0.0
4.725538117155759 0.6529070682798582 0.0
2.736307197014292 0.273961667653487 0.0
7.663692802980817 1.726038332346062 0.0
6.446842959287713 1.783714797320288 0.0
1.126188383272983 1.743715177525389 0.0
2.64757240694847 1.787239829472812 0.0
6.546646507559373 0.2589894635657943 0.0
7.746646507561152 0.2589894635657218 0.0
4.079302268890254 1.221431431691139 0.0
4.433746883463333 0.2983726043497702 0.0
1.032697650548726 1.318076986199429 0.0
1.309492735411376 1.208980965369829 0.0
3.896105387998365 0.2579746081881307 0.0
9.378751775005455 1.725996478164223 0.0
9.3965279828929 0.2649862374471925 0.0
1.515757555362918 0.2603060454608533 0.0
4.959097093232828 1.726144293543605 0.0
4.912501341257775 0.2529154558175828 0.0
4.342421824442713 1.285376618065631 0.0
7.023506283123107 0.293611963231815 0.0
8.215829626877609 0.2682061590942965 0.0
5.28145265730745 1.291130016052329 0.0
8.693992162747364 1.744100892812201 0.0
0.6256567126095668 1.775064851453201 0.0
0.2724967459749605 1.756941612685287 0.0
8.90781713264278 0.2741674349222226 0.0
7.184202236567151 1.709454269177068 0.0
3.212962614055919 0.2641656831057426 0.0
0.6761590188374282 0.6746441670621973 0.0
1.020489328989316 0.2487299689497893 0.0
1.485017749467193 1.402133856149482 0.0
6.734223224917944 1.790518105434539 0.0
2.657549589911705 0.7636227781082678 0.0
6.542590471647475 1.237213715285722 0.0
7.742745187066703 1.235538225115726 0.0
0.5794341726414672 0.2480285055479751 0.0
1.842901067642841 1.760146518280044 0.0
3.84389577648662 0.7524680119172447 0.0
3.061589173628368 1.407936939342627 0.0
6.144447294584154 0.5911674363009913 0.0
7.344447294585433 0.5911674362995804 0.0
8.544447294586682 0.5911674362982269 0.0
5.491507940982565 0.1734458797927824 0.0
[...]
<PointData Vectors="fields">
<DataArray type="Float64" Name="U" NumberOfComponents="3" format="ascii">
0.0 0.0 0.0
0.028845952866166844 0.0 0.0
0.002271397504716223 -0.005357041883629322 0.0
0.01443977479270257 -0.04641044512645372 0.0
0.026440324735847925 -0.004971218453815878 0.0
0.0003127567125203669 -0.005508730945219285 0.0
0.0009131702384993114 -0.009045136288768896 0.0
0.001452845618934876 -0.012180408013628182 0.0
0.0019036953946012642 -0.014937203515894337 0.0
0.0022995941391025405 -0.017572150745987128 0.0
0.002682651118055793 -0.020106214761696887 0.0
0.0030699893817419887 -0.022546995344831306 0.0
0.0034981946775502096 -0.024907321366938802 0.0
0.003942952635072336 -0.027187537065519345 0.0
0.004424623541137334 -0.029361702472019746 0.0
0.004930360507865423 -0.03142802059362445 0.0
0.005478990520377038 -0.0333880289666687 0.0
0.006032639277959852 -0.035224916616217 0.0
0.00663705422424009 -0.036939117054518994 0.0
0.007233350525849844 -0.03852503895247539 0.0
0.007873799422805599 -0.039977015996787754 0.0
0.008514366421735177 -0.04128383427160633 0.0
0.009188262676913394 -0.0424564676697225 0.0
0.009871640105605711 -0.043456604919001184 0.0
0.010565805246650205 -0.04435661416486952 0.0
0.011295715660515186 -0.04508533684390759 0.0
0.012025225417182636 -0.04565418238720355 0.0
0.01278320773782938 -0.04607265012481076 0.0
0.013533268204118022 -0.0463219375962583 0.0
0.014316005340102893 -0.04641829605785198 0.0
0.01507645149374227 -0.046352342180213967 0.0
0.01583377254204482 -0.04611917542473473 0.0
0.01658438765105369 -0.04572710075674198 0.0
0.017322216813229825 -0.04517061303264107 0.0
0.018036864338242066 -0.04446240152755362 0.0
0.01876419802158221 -0.04360951919259202 0.0
0.019449237830301648 -0.04256264617694996 0.0
0.02013383800026636 -0.04141890754293637 0.0
0.020783147886038533 -0.040126429966302085 0.0
0.021427418906421324 -0.03867378067344501 0.0
0.02203146545582497 -0.03709190127653263 0.0
0.022610909351578872 -0.035388918152503786 0.0
0.023147093053277133 -0.03353550437618215 0.0
0.023671194982516547 -0.0316099672972747 0.0
0.024154699097873746 -0.029568871469107624 0.0
0.024621527881726824 -0.02741467934385231 0.0
0.025052501148132972 -0.02515575693816596 0.0
0.02546742382272235 -0.022816314259792813 0.0
0.025848103829424027 -0.02038726189258537 0.0
0.026238988514729326 -0.017864661690457355 0.0
0.026623039254095957 -0.015252421142727046 0.0
0.027050987171742376 -0.012493433810517922 0.0
0.02752550030290337 -0.009500461304472237 0.0
0.028262085635172428 -0.005940844345846571 0.0
0.02434028546502619 -0.0021161067507076553 0.0
0.021435282925383065 -0.003275464567716265 0.0
0.018795591749210937 -0.004013752873173669 0.0
0.01637521635018856 -0.0045720953890476534 0.0
0.014026317875020719 -0.004921777217111162 0.0
0.011720183058479355 -0.005148280189635695 0.0
0.00941518060991029 -0.005284405617486551 0.0
0.00707474880359574 -0.005344854923275475 0.0
0.004692311156871657 -0.005356898709582879 0.0
0.0022696033586310084 -0.007786592171948266 0.0
0.0022758445880377027 -0.010247355589195362 0.0
0.002320699274714194 -0.012746322619252954 0.0
0.002425148010918677 -0.01527226920359612 0.0
0.0025995952701535863 -0.017789399287430785 0.0
0.0028384102799349116 -0.020263951747959443 0.0
0.0031427405570797914 -0.022706370797038626 0.0
0.00349860479025291 -0.02506145396756316 0.0
0.0039056170676154576 -0.027328434596541624 0.0
0.004367146835105737 -0.029504810333048546 0.0
0.004848101350053418 -0.03156805683288158 0.0
0.0053882683294460805 -0.03352332556166779 0.0
0.005934841948231994 -0.03535908619325923 0.0
0.006534819685079453 -0.037069751131878985 0.0
0.007155487927190916 -0.03865557991274004 0.0
0.007804562420247576 -0.040105027020944026 0.0
0.008465772939028567 -0.041381923968197974 0.0
0.009165653210659482 -0.04257734929556976 0.0
0.00988576894180786 -0.043586201781526654 0.0
0.010604875921533996 -0.044449361457646386 0.0
0.011357451700993322 -0.04516659605552438 0.0
0.012134674530133513 -0.045718307058273996 0.0
0.012885171176868847 -0.046109032331192935 0.0
0.013669125652059404 -0.04634236455662071 0.0
0.015223930110559997 -0.04630367298687446 0.0
0.01596859615581866 -0.04605233375377014 0.0
0.016699824935477156 -0.04564368829466646 0.0
0.017440361521314375 -0.04508639151840747 0.0
0.01816660672205623 -0.04435270615124111 0.0
0.018885199160024044 -0.043470885527586836 0.0
0.019553464911503313 -0.04244895614813801 0.0
0.020228076454230588 -0.04127877281019928 0.0
0.020881249677353414 -0.039974221441118896 0.0
0.02152735063295104 -0.03852563708027082 0.0
0.022135082000326108 -0.03690958721698665 0.0
0.022739654488216215 -0.03521623581224899 0.0
0.023303789288407758 -0.03336430039636938 0.0
0.023836486762438363 -0.03139173444368116 0.0
0.024351879501679295 -0.029304069999973363 0.0
0.024817796751021592 -0.027108337731471772 0.0
0.02522372271677883 -0.02482148545214865 0.0
0.025593935691483483 -0.022438809306133845 0.0
0.025891383893823124 -0.019989829157808694 0.0
0.0261273291140138 -0.017481690240936792 0.0
0.026289970810227065 -0.014952158534780467 0.0
0.026386202156666833 -0.012411046150286145 0.0
0.026433048637366927 -0.009897533880900238 0.0
0.026444075686614454 -0.007415778072077331 0.0
0.02400154562744471 -0.0049725002734952485 0.0
0.021600010381620356 -0.004960997908837352 0.0
0.019243819074146795 -0.0049058164371125045 0.0
0.01691269843148884 -0.004777570591566475 0.0
0.014590476440072109 -0.004539894133603261 0.0
0.012223900065931494 -0.004200538203088442 0.0
0.009784372437153426 -0.003656699593587932 0.0
0.007151409100383872 -0.0029031551787580294 0.0
0.00402816365121637 -0.0016395951305703373 0.0
0.014085669741730913 -0.023871702364426844 0.0
0.014084498475188207 -0.036314624877208046 0.0
0.014395443780947493 -0.044263809718033856 0.0
0.014281446396258163 -0.018989342531783956 0.0
0.014043437765340843 -0.03270573979291576 0.0
0.014175987123615532 -0.042291684496045166 0.0
0.01434750822962128 -0.04664481592191716 0.0
0.0168962135313332 -0.014494872041461847 0.0
0.014721709127698102 -0.04645867632148881 0.0
0.01133053120336921 -0.030634662854777766 0.0
0.012442163123394197 -0.04087760911461059 0.0
0.010901860502957201 -0.02641273312295187 0.0
0.011957866870097254 -0.03808213543167365 0.0
0.013386235065438675 -0.04521355697617689 0.0
0.016467596629994873 -0.04073783131039502 0.0
0.017399671966308136 -0.03079766300561093 0.0
0.015512200121268938 -0.045065253233771634 0.0
0.01695433788648358 -0.03811936969950258 0.0
0.018001811371902498 -0.026394380209540855 0.0
0.013581203357854716 -0.046062592516696726 0.0
0.0104946232985036 -0.017420182908636974 0.0
0.018528666890214845 -0.012794915836179095 0.0
0.009645785194397629 -0.012950489586403015 0.0
0.014288883035605675 -0.046726317317968856 0.0
0.01960187974089723 -0.02070675124833025 0.0
0.015885441161156786 -0.04516406195977389 0.0
0.014246629675003113 -0.046703090605708666 0.0
0.00924054046507968 -0.0254041511929902 0.0
0.01039324826433845 -0.03526692323438406 0.0
0.012161131070285706 -0.0436066554939824 0.0
0.008370618322357002 -0.020818682128569778 0.0
0.009768390838582861 -0.031562853069487376 0.0
0.011440492479484761 -0.04147382749336743 0.0
0.017987712482320443 -0.03714147824232582 0.0
0.016719095749042935 -0.042838860141473575 0.0
0.018408840816429357 -0.03372956277592878 0.0
0.019715240236055077 -0.020700277936236595 0.0
0.008676786249689475 -0.010858444386900248 0.0
0.015203209817313846 -0.04631946118629317 0.0
0.02009439374987276 -0.025936080936759198 0.0
0.02100309616475662 -0.010487380238915697 0.0
0.01319825654017725 -0.046108612055791386 0.0
0.017150481709164698 -0.04304317485479548 0.0
0.013896354701823415 -0.010109669189699832 0.0
0.01405430697823147 -0.010216513764502472 0.0
0.014333121475658739 -0.046806453187536345 0.0
0.011505460760945784 -0.04377669841049168 0.0
0.00945367646089925 -0.03538276404670083 0.0
0.010243897451756512 -0.03858839485316373 0.0
0.01951423730482623 -0.03375823336889358 0.0
0.01997433413436988 -0.02994046299175611 0.0
0.01803643132148854 -0.04047956657624544 0.0
0.01434400928171623 -0.019294000102580117 0.0
0.02145905560962102 -0.01614434536951894 0.0
0.014343193150054459 -0.045661882498324945 0.0
0.014438735384427972 -0.03956441131487318 0.0
0.014380101137328082 -0.044473983340986206 0.0
0.014437160228848639 -0.02851997354196521 0.0
0.014388719542470832 -0.036640372717851664 0.0
0.01413022234552818 -0.024144723747596193 0.0
0.014459817462855677 -0.03276460593218066 0.0
0.014232761881128434 -0.028692152330442748 0.0
0.01428885135187145 -0.03973217200878536 0.0
0.014369846797298915 -0.04223275539894742 0.0
0.014358755335403598 -0.045845065974758015 0.0
0.015067563986910074 -0.046483651230435935 0.0
0.012205310356239802 -0.044969394081456004 0.0
0.0072383054296026065 -0.02127990879626626 0.0
0.006639208130064067 -0.01632110923852402 0.0
0.02198721730780798 -0.01642635511892128 0.0
0.013458997736679888 -0.046374274211583195 0.0
0.02226233782132607 -0.00908751263402334 0.0
0.006278785951821131 -0.009311813068914961 0.0
0.00777060085877522 -0.02882449610917792 0.0
0.01073071268082686 -0.041872545789871346 0.0
0.007348099733718974 -0.02471230664063882 0.0
0.009826699346009929 -0.039055287843855785 0.0
0.01873796005660304 -0.0396481240435505 0.0
0.01690291762261444 -0.044395261299010336 0.0
0.01950754935832698 -0.03680570082007645 0.0
0.021347507113056757 -0.024555342737702834 0.0
0.014857073141957855 -0.014824355247791663 0.0
0.012177360215178838 -0.04510275612888551 0.0
0.006337270052073982 -0.015095584237374674 0.0
0.008132706918991602 -0.03251984860568496 0.0
0.007369730824250358 -0.028498148123127086 0.0
0.013376625825298024 -0.04486857764791225 0.0
0.011257060206479494 -0.021762808372520284 0.0
0.010817534030679915 -0.017597250195009188 0.0
0.021099953498908076 -0.029919825883268605 0.0
0.013399233270327708 -0.014551415334672088 0.0
0.012238998278571977 -0.03780002247147818 0.0
0.01291970399585344 -0.043295100230756105 0.0
0.011795744061985552 -0.034449454873538406 0.0
0.016650531709719408 -0.03466263154972348 0.0
0.01680019588562483 -0.03091982370378655 0.0
0.015929995372846013 -0.041167462711087136 0.0
0.015937751105738977 -0.04582615614763693 0.0
0.017337164539533975 -0.008832485184303691 0.0
0.016145640684250197 -0.0455320158857196 0.0
0.01746610731409789 -0.00846016178566642 0.0
0.010507485122115828 -0.00898970809741695 0.0
0.013878957689688911 -0.04621961133206671 0.0
0.01771459514797763 -0.01736524233434343 0.0
0.014833655383071773 -0.04657977283890561 0.0
0.015541366638215875 -0.04336508128011107 0.0
0.016822633881873755 -0.02635750183203574 0.0
0.01424827389123004 -0.04642866797573472 0.0
0.014601796404109408 -0.04668232463919966 0.0
0.02207764182717021 -0.022950993212069008 0.0
0.006413484152336284 -0.007294707774702723 0.0
0.018430519963636795 -0.04162560285516904 0.0
0.013705195507166784 -0.04649295302779304 0.0
0.017144373585316453 -0.04440881326586137 0.0
0.014480918966290996 -0.04674236791073262 0.0
0.01100094770255717 -0.00769534177739754 0.0
0.011688344803517978 -0.027625967620061025 0.0
0.011104385877266304 -0.022963578771117057 0.0
0.012042214059730166 -0.03351152498640568 0.0
0.012955895867805385 -0.042649765365778504 0.0
0.011642510320989044 -0.029590621063233277 0.0
0.012525540873784338 -0.04025429370039562 0.0
0.015935404311101586 -0.03797566394384376 0.0
0.01652353547209344 -0.021627908872042863 0.0
0.01602556278542723 -0.03477215558775393 0.0
0.015294731793551198 -0.04346898206145326 0.0
0.014796093836058538 -0.046261851272652074 0.0
0.013984248284129218 -0.04659397841092487 0.0
0.008705786972876514 -0.0365540710739303 0.0
0.007795090486243702 -0.03304527985371784 0.0
0.010197648004127917 -0.0424468412357973 0.0
0.0228972077425382 -0.019128865468108967 0.0
0.02076367473597748 -0.035745575814189225 0.0
0.01844328872748733 -0.04190604906235794 0.0
0.021044043948442174 -0.03226162833171396 0.0
0.01512476473738463 -0.045008270853315574 0.0
0.012833546478567362 -0.04593486670371867 0.0
0.01809715212275938 -0.01800161200955697 0.0
0.016752134124139208 -0.021513781191852238 0.0
0.01131169811081805 -0.0440879716345928 0.0
0.005663394040246044 -0.013028615777873235 0.0
0.023194733274405615 -0.012602525189375902 0.0
0.0063281421550932995 -0.0240309111616716 0.0
0.014529740531893336 -0.04660005240457633 0.0
0.014077058527748362 -0.046574096464656586 0.0
0.015077055338513733 -0.045849511069588116 0.0
0.019303305611523255 -0.03865521297263026 0.0
0.02174679161563738 -0.027342561649797502 0.0
0.014063100790276067 -0.04663057485827139 0.0
0.005992997364894171 -0.021640772786660226 0.0
0.023607988075999765 -0.012752650730459083 0.0
0.023472880969775314 -0.008302779260034721 0.0
0.022622758722894765 -0.01912528656903182 0.0
0.008899864972892791 -0.03735619643813475 0.0
0.009688508600748725 -0.04021785340545364 0.0
0.010765865965059069 -0.013299448928219576 0.0
0.0055309145687500606 -0.017909639106768516 0.0
0.018734520294912602 -0.023623731048851935 0.0
0.009382413233036208 -0.040666580348610565 0.0
0.012506111049020434 -0.03601397481996165 0.0
0.013002108171417918 -0.042100618332419265 0.0
0.012141054798264043 -0.0324009525576532 0.0
0.005119087102690909 -0.011907516986213932 0.0
0.022124374820026986 -0.027687823456284545 0.0
0.013318362753680804 -0.044016706751296486 0.0
0.017129710234923632 -0.03924804721766831 0.0
0.016008795113875263 -0.044157246258229095 0.0
0.0175249496644865 -0.03610838380128612 0.0
0.018597567902427982 -0.023614122293453152 0.0
0.015844719029885136 -0.046086758960748146 0.0
0.012059563417158713 -0.024644110565889967 0.0
0.01992766742756433 -0.03814526649406601 0.0
0.02068942519755696 -0.035043283983667524 0.0
0.01781822371061473 -0.043495837210656224 0.0
0.01991965497941079 -0.013439352798029191 0.0
0.011905402256635516 -0.012920853974354867 0.0
0.012480261523320667 -0.0456557174037233 0.0
0.0160560295332099 -0.04411675083691945 0.0
0.007628384691535699 -0.03451063078322786 0.0
0.006700725775175238 -0.03073215990768622 0.0
0.015585726799654982 -0.0456600115709976 0.0
0.011588443048093904 -0.02071491529136807 0.0
0.01944034254280526 -0.02903538703768425 0.0
0.016439080221830552 -0.011661582301611831 0.0
0.016780354532825205 -0.045194486378387536 0.0
0.020324938587576502 -0.00687204410981423 0.0
0.01057768794566757 -0.04292301735440959 0.0
0.006288325606950714 -0.026697926716986425 0.0
0.015269714811974106 -0.046235690894979274 0.0
0.011217443491364196 -0.04430179460178285 0.0
0.01645835367280152 -0.042338909102872045 0.0
0.021661660771425142 -0.03232578096868321 0.0
0.014337282545082647 -0.046796378623804986 0.0
0.014876770159531691 -0.007667684129143149 0.0
0.013359763267588134 -0.04586470548559763 0.0
0.01403391637695985 -0.04521345084258557 0.0
0.013261344519615526 -0.02644788652653042 0.0
0.01358080637183764 -0.038100336161138434 0.0
0.01351334558885195 -0.030648321873907383 0.0
0.013785268685492586 -0.04087937453730951 0.0
0.005267423804545514 -0.01854041953377783 0.0
0.015090638143782212 -0.0074187716204448684 0.0
0.01804689227675669 -0.04330362419329686 0.0
0.014363362751857896 -0.0467938084076972 0.0
0.013934130463441507 -0.046612613945726834 0.0
0.011381661989554932 -0.010190280025018853 0.0
0.02322620880150117 -0.021672007731590934 0.0
0.018090926838405796 -0.028890021035331354 0.0
0.01822201170202266 -0.03265583890384454 0.0
0.01687752494266179 -0.039822848148052745 0.0
0.01120541674354454 -0.036374643394182775 0.0
0.01176997638482907 -0.03944523950703287 0.0
0.012803051969070504 -0.044395289594472725 0.0
0.006598560758546538 -0.030637760157660524 0.0
0.005812252815205369 -0.026437920070010508 0.0
0.011912721372262198 -0.042711159416580304 0.0
0.010200376828652996 -0.03356407975234639 0.0
0.010830786579078738 -0.037024510774694847 0.0
0.01660372749151168 -0.028617432817412615 0.0
0.015953076569663792 -0.012181696271520649 0.0
0.00838339537877948 -0.007678746813951957 0.0
0.019704295289491407 -0.006610745242770166 0.0
0.015084039829777733 -0.040850279336717296 0.0
0.015484667722623337 -0.03081717881757503 0.0
0.014738819558602513 -0.04513349992935588 0.0
0.015167198279429516 -0.038049481639580905 0.0
0.0154537483009461 -0.02625797127131659 0.0
0.022339179434027752 -0.025414752743594542 0.0
0.008679325088303495 -0.005883720427398799 0.0
0.018223729837802856 -0.035544974861199896 0.0
0.016991815162897272 -0.04176069813534832 0.0
0.018601089353832416 -0.03191771280002195 0.0
0.013557593643565947 -0.034605457790848705 0.0
0.013768103604899442 -0.04113375997581666 0.0
0.013326956945114656 -0.030787054159887008 0.0
0.01574183058245376 -0.046135323220507 0.0
0.013911210910403277 -0.04337192851983926 0.0
0.010197554584621632 -0.03229610154901734 0.0
0.00964022246480049 -0.028237556400466178 0.0
0.016969553148219203 -0.04497277611559218 0.0
0.0147837153854402 -0.04659014034381079 0.0
0.012108315969001478 -0.019492470811567277 0.0
0.013465279413239366 -0.021516859364986 0.0
0.013063713671998423 -0.016681493951718522 0.0
0.012685350837073747 -0.04475806803165562 0.0
0.013525776826086829 -0.026303070584837416 0.0
0.0074857107751104554 -0.03457091182836258 0.0
0.008512169282454327 -0.037872630253239406 0.0
0.01443770188089719 -0.04662838215686816 0.0
0.021640376376450103 -0.03038382253279409 0.0
0.019056001119081286 -0.040722086343383375 0.0
0.011151054810700979 -0.040670898252350964 0.0
0.01045494868297264 -0.03780322175372302 0.0
0.009261783622580193 -0.02223412707607495 0.0
0.024053439022929675 -0.006056451403381177 0.0
0.004823320356504537 -0.007913609699095702 0.0
0.015236481424314628 -0.016460124443842743 0.0
0.014946721455686303 -0.045826923445881185 0.0
0.014087234623733791 -0.04507146342195526 0.0
0.013771068740471371 -0.045595060819815916 0.0
0.012548670991306162 -0.007642582253150856 0.0
0.012938371120037217 -0.04611874950045623 0.0
0.023741305202266944 -0.01650189235527847 0.0
0.013523191987291799 -0.021565645072196295 0.0
0.018983880479487993 -0.01125646073414638 0.0
0.013093618093801022 -0.045409281301297726 0.0
0.013910331587251804 -0.03802886472944778 0.0
0.013989379536033767 -0.04353198077210085 0.0
0.01368769792417987 -0.03485473874741636 0.0
0.009371304949067499 -0.01983677363402734 0.0
0.009562755249887428 -0.02765365904603513 0.0
0.009069206223479414 -0.023163785946470616 0.0
0.011928876613009015 -0.04262133767244129 0.0
0.011219921027961096 -0.04018237361702652 0.0
0.014602899888305172 -0.046186242726444324 0.0
0.011499829349807084 -0.044834823426857476 0.0
0.019931483521002456 -0.018534954983093148 0.0
0.01996824030120905 -0.026401420700885553 0.0
0.018311166686402768 -0.038084535324745934 0.0
0.01389489921419366 -0.045838987473303956 0.0
0.016110442981201532 -0.04511985714480711 0.0
0.0048175693962665455 -0.02172370346321084 0.0
0.008636263631161063 -0.018102177523725213 0.0
0.009072930506478515 -0.015568566016783504 0.0
0.01655800795593653 -0.023788454183543976 0.0
0.015851257969769474 -0.03933078612580461 0.0
0.016059415442310702 -0.0363196820450535 0.0
0.01523177028574482 -0.04428183325135388 0.0
0.01773572758800469 -0.041005106884141315 0.0
0.013094484645740163 -0.03948800438543361 0.0
0.013587313731352631 -0.044416780514488705 0.0
0.01276929805995016 -0.036466516041793476 0.0
0.023612178705628855 -0.010458008908577452 0.0
0.014270328981528795 -0.046346775529748016 0.0
0.016712444569044957 -0.03645159692026796 0.0
0.01680897188566053 -0.0332340569389612 0.0
0.01581755053242687 -0.04258332753999211 0.0
0.015454269719701631 -0.04212034592150293 0.0
0.010464200365419696 -0.04329071435094242 0.0
0.014626315461367608 -0.04668214584948483 0.0
0.015662370206368688 -0.03956672310032226 0.0
0.016253696434804406 -0.028469405334330233 0.0
0.016176365754762462 -0.01921125996468227 0.0
0.019190121649565323 -0.04049324743606632 0.0
0.00878662022505691 -0.010586335645441947 0.0
0.019322222382913902 -0.010039329625745202 0.0
0.02123307017587243 -0.034285711560709885 0.0
0.00798993134862914 -0.017484131326309674 0.0
0.013265467411050818 -0.04612437921260076 0.0
0.019561601214745795 -0.015248306666900888 0.0
0.019163903617501383 -0.015542058586848224 0.0