<VTKFile type="UnstructuredGrid"  version="0.1">
<UnstructuredGrid>
<Piece NumberOfPoints="713" NumberOfCells="1304">
<Points>
<DataArray type="Float64" NumberOfComponents="3" format="ascii">
0.0 0.0 0.0
10.0 0.0 0.0
10.0 2.0 0.0
5.0 2.0 0.0
0.0 2.0 0.0
0.199999999999856 0.0 0.0
0.3999999999996677 0.0 0.0
0.5999999999994683 0.0 0.0
0.7999999999993286 0.0 0.0
0.9999999999991888 0.0 0.0
1.199999999999033 0.0 0.0
1.399999999998576 0.0 0.0
1.599999999997992 0.0 0.0
1.799999999997408 0.0 0.0
1.999999999996825 0.0 0.0
2.199999999996241 0.0 0.0
2.399999999995657 0.0 0.0
2.599999999995073 0.0 0.0
2.79999999999449 0.0 0.0
2.999999999993906 0.0 0.0
3.199999999993322 0.0 0.0
3.399999999992738 0.0 0.0
3.599999999992154 0.0 0.0
3.799999999991571 0.0 0.0
3.999999999991022 0.0 0.0
4.199999999991187 0.0 0.0
4.399999999991491 0.0 0.0
4.599999999991795 0.0 0.0
4.799999999992099 0.0 0.0
4.999999999992403 0.0 0.0
5.199999999992706 0.0 0.0
5.39999999999301 0.0 0.0
5.599999999993313 0.0 0.0
5.799999999993618 0.0 0.0
5.999999999993922 0.0 0.0
6.199999999994227 0.0 0.0
6.39999999999453 0.0 0.0
6.599999999994833 0.0 0.0
6.799999999995138 0.0 0.0
6.999999999995442 0.0 0.0
7.199999999995747 0.0 0.0
7.39999999999605 0.0 0.0
7.599999999996353 0.0 0.0
7.799999999996658 0.0 0.0
7.999999999996962 0.0 0.0
8.199999999997265 0.0 0.0
8.399999999997569 0.0 0.0
8.599999999997873 0.0 0.0
8.799999999998176 0.0 0.0
8.99999999999848 0.0 0.0
9.199999999998786 0.0 0.0
9.399999999999089 0.0 0.0
9.599999999999392 0.0 0.0
9.799999999999697 0.0 0.0
10.0 0.1999999999996293 0.0
10.0 0.3999999999991157 0.0
10.0 0.5999999999985328 0.0
10.0 0.7999999999979498 0.0
10.0 0.9999999999973885 0.0
10.0 1.199999999997894 0.0
10.0 1.39999999999842 0.0
10.0 1.599999999998947 0.0
10.0 1.799999999999474 0.0
9.799999999999999 2.0 0.0
9.6 2.0 0.0
9.399999999999999 2.0 0.0
9.2 2.0 0.0
8.999999999999998 2.0 0.0
8.799999999999999 2.0 0.0
8.599999999999998 2.0 0.0
8.399999999999999 2.0 0.0
8.2 2.0 0.0
7.999999999999998 2.0 0.0
7.799999999999999 2.0 0.0
7.599999999999999 2.0 0.0
7.399999999999999 2.0 0.0
7.199999999999999 2.0 0.0
7.0 2.0 0.0
6.799999999999999 2.0 0.0
6.6 2.0 0.0
6.399999999999999 2.0 0.0
6.199999999999999 2.0 0.0
5.999999999999999 2.0 0.0
5.8 2.0 0.0
5.6 2.0 0.0
5.399999999999999 2.0 0.0
5.199999999999999 2.0 0.0
4.8 2.0 0.0
4.6 2.0 0.0
4.399999999999999 2.0 0.0
4.199999999999998 2.0 0.0
3.999999999999999 2.0 0.0
3.799999999999999 2.0 0.0
3.599999999999999 2.0 0.0
3.399999999999999 2.0 0.0
3.199999999999998 2.0 0.0
2.999999999999999 2.0 0.0
2.799999999999999 2.0 0.0
2.599999999999999 2.0 0.0
2.399999999999999 2.0 0.0
2.199999999999999 2.0 0.0
2.0 2.0 0.0
1.799999999999999 2.0 0.0
1.599999999999999 2.0 0.0
1.399999999999999 2.0 0.0
1.199999999999999 2.0 0.0
0.9999999999999991 2.0 0.0
0.7999999999999998 2.0 0.0
0.5999999999999996 2.0 0.0
0.3999999999999995 2.0 0.0
0.1999999999999993 2.0 0.0
0.0 1.799999999999167 0.0
0.0 1.6 0.0
0.0 1.400000000001387 0.0
0.0 1.200000000002774 0.0
0.0 1.000000000004117 0.0
0.0 0.8000000000033287 0.0
0.0 0.6000000000024965 0.0
0.0 0.4000000000016644 0.0
0.0 0.200000000000832 0.0
1.499207686858938 0.9671416246672391 0.0
2.690335006295381 0.9619521672166851 0.0
3.892537609238439 1.007271393615351 0.0
8.916602958236062 0.9848120741100651 0.0
7.714518201951718 1.024234589865042 0.0
6.514518201951581 1.024234589865268 0.0
5.299999999999998 1.000000000000349 0.0
0.7620577975594133 1.201991596673393 0.0
4.61755859746166 1.240410629378135 0.0
2.099999999996533 0.6749999999988996 0.0
3.289480163184942 0.6802242156869155 0.0
8.299999999999976 1.325000000000064 0.0
7.110519836808121 1.319775784312006 0.0
5.893184537067197 1.292851873188582 0.0
3.268568008578649 1.341967835735878 0.0
2.118368267083699 1.321829331075689 0.0
5.930896443153832 0.6493414313150682 0.0
7.106926174231782 0.6329785805444448 0.0
8.306926174233002 0.6329785805444098 0.0
4.427960725065653 0.6389803625370323 0.0
0.9828791719046732 0.6520555711814596 0.0
9.383333333333349 0.6166666666667164 0.0
9.383333333333326 1.383333333333367 0.0
4.974443803660211 0.5526668589022862 0.0
1.248084267804327 1.464555585366204 0.0
4.139486343919472 1.468449088519687 0.0
5.077806736162063 1.478342020848787 0.0
1.629462398503482 0.5098631373669138 0.0
2.579462070540726 0.5133714280880515 0.0
3.770778974032556 0.5099482598296803 0.0
8.764748922637567 1.526880805960684 0.0
7.820537929455645 1.486628571911716 0.0
6.632254923791462 1.492045881343967 0.0
2.796478414430566 1.477149214423874 0.0
6.403521585563812 0.5228507855762514 0.0
7.603521585564883 0.5228507855756581 0.0
8.783559188644787 0.5066440811355862 0.0
0.5060338924245764 0.5082251307884346 0.0
5.451633334958382 0.4799315318847731 0.0
1.683269995544083 1.547372422998862 0.0
0.448590368789599 1.551409631210402 0.0
5.545526974704655 1.582008455135239 0.0
3.666056976948354 1.56999765613834 0.0
0.4385739326402744 0.9352922270094057 0.0
9.58170539854767 0.9922137522194456 0.0
4.93200119575972 0.9247090920592975 0.0
6.20679636316332 1.642443126922768 0.0
7.418963044745086 1.587405313446662 0.0
2.98103695524982 0.412594686552066 0.0
2.420975602092416 1.592770352831584 0.0
7.97902439790374 0.4072296471687943 0.0
6.779024397902082 0.4072296471687297 0.0
1.130444757308209 0.9859238872709168 0.0
0.8901814758011342 1.60566856081121 0.0
4.263670373274499 0.9915754392410991 0.0
3.096698167273431 1.009056907826855 0.0
6.088506433998166 0.9857489435828969 0.0
1.902225037409936 1.003483800311746 0.0
7.288506433998439 0.9857489435828686 0.0
8.498964973312972 1.005823551167602 0.0
2.307571737417198 1.008136792450924 0.0
8.100397971125554 1.000138280273345 0.0
6.900397971125225 1.000138280273792 0.0
3.499307350770321 0.9996496628144824 0.0
5.703656022566558 0.9885479657552226 0.0
4.719420624357892 1.622286409566126 0.0
4.099803549896894 0.3600308081356619 0.0
1.286100671532495 0.3637431910670685 0.0
9.120549139677793 1.655065205594329 0.0
9.11726214008418 0.3400668903113251 0.0
4.642568097328033 0.3514924793220939 0.0
9.630437629189052 0.3309104953729904 0.0
9.674493769554315 1.668196579944218 0.0
1.936458797611609 0.3337070483410596 0.0
3.461817573918652 0.3447876019040473 0.0
8.440152788772068 1.649667667046397 0.0
6.973083089482548 1.643748677366674 0.0
3.126874515006838 1.659115470008545 0.0
6.070607878384977 0.3410183041038941 0.0
7.255014454789089 0.32792256737713 0.0
8.462493615948901 0.3368393217476116 0.0
9.236261261261264 0.9276047786917867 0.0
5.885444386845415 1.667751020273455 0.0
0.8062340689595878 0.3261579034781319 0.0
2.29463843780282 0.308358158429197 0.0
8.10536156219338 1.691641841570632 0.0
4.041916759198581 0.7211683801597477 0.0
1.324377365289917 0.710525897087282 0.0
9.023167917315867 1.292262965009952 0.0
2.044244009166302 1.693807225416931 0.0
0.7675765545556328 0.8969765944392112 0.0
2.86965991063896 0.7069213925303978 0.0
6.330340089355722 1.293078607468788 0.0
7.530340089355831 1.29307860746885 0.0
2.509347777214458 1.27231292939881 0.0
7.890652222779963 0.7276870706009825 0.0
6.690652222780154 0.7276870706013264 0.0
4.380959112578968 1.65866292149053 0.0
0.3278422400819535 1.233362752678148 0.0
5.754468991464942 0.3469215055361071 0.0
9.69195804401614 0.7000195364707393 0.0
9.691250997975434 1.303243780084337 0.0
5.54324561063747 1.237401556904767 0.0
9.044596057577811 0.6843248705785732 0.0
5.208929198448351 0.3519433027337513 0.0
3.708880196230617 1.249762029554333 0.0
1.713349558540635 1.234899745098077 0.0
4.586522821995393 0.9261740906803194 0.0
5.241145838821565 0.7007005766013242 0.0
1.434457446926135 1.701926055218157 0.0
0.2821921707428039 0.3393165318407161 0.0
3.42846431357046 1.714274134409306 0.0
5.26283485467567 1.710141275531951 0.0
3.966530105129177 1.718376080180638 0.0
4.891301048299285 1.259923533724591 0.0
0.2787500712946937 0.6906723798523376 0.0
1.822166578929051 0.7301892210727335 0.0
8.593276160688786 1.287322908694633 0.0
2.386017956680413 0.7288816957021155 0.0
3.576911792171353 0.7225526638483954 0.0
8.013982043315597 1.271118304297217 0.0
6.82303669320588 1.277631295759485 0.0
2.891837633696712 1.215141906356511 0.0
8.708162366297856 0.7848580936429009 0.0
7.496736072543097 0.7897651325976158 0.0
6.296736072542775 0.7897651325982009 0.0
5.523181420933933 0.7588744249744506 0.0
4.725538117155759 0.6529070682798582 0.0
2.736307197014292 0.273961667653487 0.0
7.663692802980817 1.726038332346062 0.0
6.446842959287713 1.783714797320288 0.0
1.126188383272983 1.743715177525389 0.0
2.64757240694847 1.787239829472812 0.0
6.546646507559373 0.2589894635657943 0.0
7.746646507561152 0.2589894635657218 0.0
4.079302268890254 1.221431431691139 0.0
4.433746883463333 0.2983726043497702 0.0
1.032697650548726 1.318076986199429 0.0
1.309492735411376 1.208980965369829 0.0
3.896105387998365 0.2579746081881307 0.0
9.378751775005455 1.725996478164223 0.0
9.3965279828929 0.2649862374471925 0.0
1.515757555362918 0.2603060454608533 0.0
4.959097093232828 1.726144293543605 0.0
4.912501341257775 0.2529154558175828 0.0
4.342421824442713 1.285376618065631 0.0
7.023506283123107 0.293611963231815 0.0
8.215829626877609 0.2682061590942965 0.0
5.28145265730745 1.291130016052329 0.0
8.693992162747364 1.744100892812201 0.0
0.6256567126095668 1.775064851453201 0.0
0.2724967459749605 1.756941612685287 0.0
8.90781713264278 0.2741674349222226 0.0
7.184202236567151 1.709454269177068 0.0
3.212962614055919 0.2641656831057426 0.0
0.6761590188374282 0.6746441670621973 0.0
1.020489328989316 0.2487299689497893 0.0
1.485017749467193 1.402133856149482 0.0
6.734223224917944 1.790518105434539 0.0
2.657549589911705 0.7636227781082678 0.0
6.542590471647475 1.237213715285722 0.0
7.742745187066703 1.235538225115726 0.0
0.5794341726414672 0.2480285055479751 0.0
1.842901067642841 1.760146518280044 0.0
3.84389577648662 0.7524680119172447 0.0
3.061589173628368 1.407936939342627 0.0
6.144447294584154 0.5911674363009913 0.0
7.344447294585433 0.5911674362995804 0.0
8.544447294586682 0.5911674362982269 0.0
5.491507940982565 0.1734458797927824 0.0
[...]
<PointData Vectors="fields">
<DataArray type="Float64" Name="U" NumberOfComponents="3" format="ascii">
0.0 0.0 0.0
0.034053809358298076 0.0 0.0
0.0028193456339602233 -0.006125866131982966 0.0
0.016915094821825533 -0.05420787513375325 0.0
0.030956131409504317 -0.005853877714031693 0.0
0.0003329737582099825 -0.006428457736131446 0.0
0.0010269001784587164 -0.010593905291235278 0.0
0.0016560179580418365 -0.014274828121219644 0.0
0.00218939029013182 -0.01751583707251414 0.0
0.0026591658530350304 -0.02060623525174205 0.0
0.003113917282163035 -0.02357410237237804 0.0
0.0035725537639493842 -0.026430343749995536 0.0
0.0040761404380957045 -0.02918927232111745 0.0
0.004596852982017005 -0.0318522972868505 0.0
0.0051594813035436 -0.034391203055154904 0.0
0.005750730365234969 -0.03680530443095417 0.0
0.006396359811970953 -0.039095950754940385 0.0
0.007056194985954123 -0.041244381674303325 0.0
0.007785011262685897 -0.04325020506388711 0.0
0.008514000388374285 -0.04510474848914941 0.0
0.009300324647831617 -0.04679964724218876 0.0
0.010084361848736359 -0.04832085326958698 0.0
0.010901954916205006 -0.049680139006528935 0.0
0.011716380290087477 -0.05083413091623876 0.0
0.012534383204668776 -0.05186663481305798 0.0
0.013380122301204648 -0.05269754905461398 0.0
0.014213819098673284 -0.05334309796423568 0.0
0.01507086203068896 -0.053815496303228266 0.0
0.01591370052443244 -0.05409652127785671 0.0
0.016790817214766506 -0.05420300382258929 0.0
0.01764440599395967 -0.05412668495245871 0.0
0.018499537024349148 -0.0538637396100307 0.0
0.019354491472117562 -0.05342136248143676 0.0
0.020205191578882106 -0.05279277226702967 0.0
0.021042489440386367 -0.05199057749682294 0.0
0.021908052445167227 -0.05101931857591775 0.0
0.02273832056046463 -0.04982251987821794 0.0
0.023575907083513488 -0.048506315470115344 0.0
0.024379585634918766 -0.0470128918405292 0.0
0.025180980584019276 -0.04532549437774239 0.0
0.02593560975931592 -0.04348068354323158 0.0
0.026661702875405244 -0.04148696718827852 0.0
0.02733430297352339 -0.03931205119505535 0.0
0.02799073412386673 -0.03704713963449178 0.0
0.028595284883456435 -0.034643059028041615 0.0
0.029173616900799546 -0.03210403982174384 0.0
0.029701763800277753 -0.02944147261714135 0.0
0.0302030901217353 -0.02668385345310162 0.0
0.030657595912873307 -0.023822007850969017 0.0
0.03111760467403606 -0.020851564081096778 0.0
0.031565615309475104 -0.017775046075981762 0.0
0.03206007287708355 -0.014529375016981453 0.0
0.03260669189691284 -0.011014201042723945 0.0
0.033444614785081116 -0.006842996049181794 0.0
0.028825788192512556 -0.002391075529924203 0.0
0.025403325900453407 -0.0037167470515595525 0.0
0.022297040781351224 -0.004562466030027353 0.0
0.019439924933270368 -0.005203416139442904 0.0
0.016669555251822007 -0.0056094192216022245 0.0
0.013949857961698935 -0.005875986260663001 0.0
0.01123363058672004 -0.006037705160130049 0.0
0.008477396925088022 -0.0061105521689928 0.0
0.00567140210456526 -0.006125752568375921 0.0
0.0028172123479622713 -0.00898869224895262 0.0
0.0028255189259331283 -0.011889201133085545 0.0
0.0028801794998562858 -0.014835518338352097 0.0
0.0030056452242700153 -0.01781262786206036 0.0
0.0032124298955847064 -0.020778251796614224 0.0
0.003491400437109719 -0.02369373202269503 0.0
0.0038471533777587243 -0.02656984709183787 0.0
0.00426277355737148 -0.029344969681442786 0.0
0.00474018192436994 -0.032017963015782094 0.0
0.005285905487548339 -0.0345838368436698 0.0
0.0058592497858709815 -0.037015835653455925 0.0
0.006506906911556486 -0.03931773397728298 0.0
0.007165251242756167 -0.041474659421332175 0.0
0.00788740284177944 -0.04347787414940313 0.0
0.008630941008041093 -0.04532797060629098 0.0
0.009402864974935785 -0.04701072763342193 0.0
0.010177208439421957 -0.04848566752799054 0.0
0.010991012205630285 -0.04985944898949928 0.0
0.01181805317688351 -0.05101229153466952 0.0
0.012634318551810334 -0.05199403449511503 0.0
0.0134810876519215 -0.05280623806771139 0.0
0.014349256851242552 -0.053428026985611075 0.0
0.015184351449401872 -0.05386843716637892 0.0
0.016056072257415205 -0.0541309105786631 0.0
0.01779425484751785 -0.05408846047819502 0.0
0.01863638944738813 -0.05380476285592561 0.0
0.019473863494595567 -0.05334298161583673 0.0
0.020334015611077127 -0.05271021741266102 0.0
0.02119013934118828 -0.05187250005082074 0.0
0.022046573817454906 -0.05085864825736866 0.0
0.022851048969887558 -0.049677882559700196 0.0
0.023666471022864705 -0.04832013396041845 0.0
0.02445433731480754 -0.04679977506954657 0.0
0.02522786229754045 -0.04510718418607477 0.0
0.025944793958267227 -0.043218402096563684 0.0
0.026651621402956346 -0.04123674211244441 0.0
0.027304674827620636 -0.03907160148936175 0.0
0.027916529177636783 -0.0367673439541102 0.0
0.028507397165287628 -0.03433000890611106 0.0
0.029043264488341772 -0.031766138892025196 0.0
0.02951344083347439 -0.029094932266514634 0.0
0.029946348808224284 -0.026310824006951967 0.0
0.030297981087622435 -0.023445332447699915 0.0
0.030579155185267784 -0.020508726472238337 0.0
0.030774301884741093 -0.01754445516436239 0.0
0.03089057186901757 -0.014566558862984363 0.0
0.030947581236335793 -0.011621310136364105 0.0
0.030960594885065636 -0.008714973753908372 0.0
0.028102080491436462 -0.005855507384689858 0.0
0.025293340180222397 -0.0058413890294429435 0.0
0.022539733601448227 -0.005774195193073574 0.0
0.019817994640470477 -0.005618438875548005 0.0
0.01710597822851473 -0.0053299696367498945 0.0
0.014341438971987698 -0.0049216670153535355 0.0
0.011486946349759464 -0.004271899009294779 0.0
0.008400847993696564 -0.0033790054116935716 0.0
0.004740001114243942 -0.0019040942430548873 0.0
0.01648075558506195 -0.02793317316699698 0.0
0.016498913437755773 -0.042450798820412555 0.0
0.016886954757796675 -0.05169011862820201 0.0
0.016998010809234423 -0.022146222774641844 0.0
0.016671339548691662 -0.03829316391541095 0.0
0.01673740500761159 -0.04944759053913987 0.0
0.016855978202740395 -0.05436908152427838 0.0
0.019775020308807883 -0.01698593322133578 0.0
0.017255199104080896 -0.05417437028129902 0.0
0.013250781451430478 -0.03581859345886199 0.0
0.014611286825091729 -0.0477918784532983 0.0
0.012989829032710967 -0.0308876641962463 0.0
0.014211336223218098 -0.04459697963952388 0.0
0.015796767475034248 -0.05277158031322046 0.0
0.019294393395773844 -0.0476293638782358 0.0
0.020379751786326755 -0.036010071862869655 0.0
0.018197147437252977 -0.052605592450990966 0.0
0.02000204024985816 -0.04463571495312479 0.0
0.021375648811026313 -0.03086155806223469 0.0
0.015975275331211625 -0.053729332918960794 0.0
0.012271944818963444 -0.02039883197530869 0.0
0.022025133865538192 -0.014862931008480306 0.0
0.011518934097067978 -0.015061893484078692 0.0
0.016774113582929014 -0.054475795896818044 0.0
0.022936709569101026 -0.024255673177262987 0.0
0.01857581467119675 -0.05273549301219095 0.0
0.01671880526575632 -0.0544613763279664 0.0
0.010801571443318314 -0.02972868534910004 0.0
0.01215981037868233 -0.04124243798720315 0.0
0.014334346645123263 -0.050951035162837596 0.0
0.010012446123860234 -0.02431692194748959 0.0
0.011648160887241767 -0.03696325376418549 0.0
0.013606619250381917 -0.048530495157219744 0.0
0.021087696981923355 -0.043432339079295036 0.0
0.019620236175040263 -0.05008780102179243 0.0
0.021776920133952153 -0.03950385450329841 0.0
0.023420002383342332 -0.02415844257252514 0.0
0.010143336976113696 -0.012706070431013034 0.0
0.017808419572992888 -0.05402509122449473 0.0
0.0235185789738558 -0.030358518937864613 0.0
0.024588655939933042 -0.012305209683855447 0.0
0.015555568954236862 -0.05380225850910098 0.0
0.020062176821623572 -0.05031706287762041 0.0
0.016270860204091714 -0.011842838395503704 0.0
0.016727533532263986 -0.011839978964291408 0.0
0.01682902019748051 -0.054551470116307045 0.0
0.013668564446767877 -0.05117614756150332 0.0
0.011286789201033423 -0.04145972716182813 0.0
0.012021910438183177 -0.045137389711084226 0.0
0.02287124872532387 -0.03948324763179049 0.0
0.023669928460831456 -0.03505115928449713 0.0
0.02119635644823009 -0.04738433252813911 0.0
0.016782246730190135 -0.02259260710283006 0.0
0.025114085013709358 -0.01892830495267151 0.0
0.01683107634126582 -0.05327368300743254 0.0
0.01692533265992117 -0.04625390964145085 0.0
0.01693739927212261 -0.05192864018815772 0.0
0.016897294114331194 -0.03334765369117546 0.0
0.017045601128647236 -0.04290732575735216 0.0
0.016809176515030857 -0.028208218719277065 0.0
0.016931633182990874 -0.038297193393491004 0.0
0.016914964653926615 -0.033565494764325514 0.0
0.016898033083631057 -0.046503157214530244 0.0
0.01685272501574676 -0.04935755850365307 0.0
0.01688809132042269 -0.05347287371314217 0.0
0.01762903995751016 -0.054233622829206754 0.0
0.014409551621344507 -0.05251699160531839 0.0
0.008454169278047294 -0.02492033620683503 0.0
0.007973584893699854 -0.01903523268734316 0.0
0.026106291442261034 -0.0191327447123998 0.0
0.01583612058197999 -0.0541014227163087 0.0
0.026432788772622225 -0.010510731490267319 0.0
0.007543070835915875 -0.010783431474774393 0.0
0.00907526002588924 -0.03372912401882851 0.0
0.012657839559137648 -0.0489663348010371 0.0
0.00880053525369101 -0.028904056140007323 0.0
0.011737708320778377 -0.04575002479696927 0.0
0.02195588081500623 -0.04637850968160195 0.0
0.019773624744137384 -0.0518726323974341 0.0
0.02299889350317503 -0.04311784692994534 0.0
0.025335801416423213 -0.028707614014243057 0.0
0.01768245291794961 -0.017252168083691823 0.0
0.014417505272458428 -0.05268083912377234 0.0
0.007393386435356808 -0.01767950408704047 0.0
0.009499281424945721 -0.03804585247457749 0.0
0.00882221362720231 -0.03336684231158406 0.0
0.01573374021196641 -0.052379969184995774 0.0
0.013165943052556521 -0.025473695630516942 0.0
0.012904500211289815 -0.020521009963770227 0.0
0.024709386817083973 -0.03501305600813069 0.0
0.015679029659528373 -0.017043911240277116 0.0
0.014340592656439662 -0.0441974768291395 0.0
0.015291703650137501 -0.05059951641749239 0.0
0.014028306074572899 -0.04034862202179574 0.0
0.019513378754054733 -0.04052105897910553 0.0
0.01992546998436748 -0.03619290169892605 0.0
0.018761104343063405 -0.04816211096553981 0.0
0.01861818255056548 -0.0535011695354653 0.0
0.020302216910711816 -0.010359861565023804 0.0
0.01888192204564113 -0.053154641948971744 0.0
0.02076151411982196 -0.009778106140529107 0.0
0.012530535939441213 -0.010399341169374217 0.0
0.016335127148629218 -0.05389908585292397 0.0
0.021059920789245044 -0.02023280463587598 0.0
0.01738032054071068 -0.05432936586762061 0.0
0.0182020966016553 -0.05066822672467014 0.0
0.019689623324312247 -0.030834239720580282 0.0
0.016727860392741694 -0.0541323507971574 0.0
0.017135273323540427 -0.054416053358341515 0.0
0.025833701121440646 -0.02688710801534935 0.0
0.007488811002606363 -0.008521874522590256 0.0
0.021571158345428134 -0.04868862681591389 0.0
0.016106762962088985 -0.054250991688550604 0.0
0.020023307039247755 -0.05189970142047383 0.0
0.016987100317602023 -0.054490798138289484 0.0
0.012883655316939944 -0.00900416950005523 0.0
0.013671525035128904 -0.03230970588293455 0.0
0.013236195281386462 -0.026827110760117786 0.0
0.014089522498859603 -0.03917641855680365 0.0
0.015228154099407431 -0.049842053642505886 0.0
0.013857366401158349 -0.03462993895301588 0.0
0.014861432109308407 -0.04711312181720565 0.0
0.018677526475909215 -0.04439759733458573 0.0
0.019644790549765926 -0.025245657822656246 0.0
0.018974356240243795 -0.040720781249887095 0.0
0.017990163239666762 -0.05079295145050869 0.0
0.01736651378469883 -0.053943900081667315 0.0
0.016432058279605612 -0.054322766898068045 0.0
0.010195886564201 -0.04276894739751389 0.0
0.009331519114003978 -0.038725710418694034 0.0
0.012175100833061869 -0.04967693835214508 0.0
0.026793910463741258 -0.022424067773512107 0.0
0.024340874216868435 -0.04182758942672067 0.0
0.021617078054197332 -0.04903979331493746 0.0
0.024891905827303266 -0.03779252325449616 0.0
0.017715714105516197 -0.052542999132548805 0.0
0.01513019179151486 -0.053614910088886414 0.0
0.021176784525299024 -0.021090591331606443 0.0
0.019601652660904023 -0.025188891881932657 0.0
0.013378593048811522 -0.05152418218675402 0.0
0.006821585145001027 -0.01516262481222476 0.0
0.027528431528294737 -0.014636562567014783 0.0
0.007388092049209592 -0.02814116812932081 0.0
0.017022040390741056 -0.05437526293062263 0.0
0.016526426409030494 -0.05433712065704392 0.0
0.017656118966519002 -0.0534955422190862 0.0
0.022713876105932337 -0.04527641893268313 0.0
0.025786291788062864 -0.03199766947261825 0.0
0.016528570826926416 -0.05436362163522769 0.0
0.0072078768388913915 -0.025296219143786446 0.0
0.027635275626479248 -0.014962333601156414 0.0
0.0274820844792626 -0.009751984467922801 0.0
0.026855791587299654 -0.022313765089260758 0.0
0.010650010353691267 -0.043778519736141205 0.0
0.011412101102055509 -0.04705167162189642 0.0
0.012592735082285245 -0.015572196838072976 0.0
0.006448833251454428 -0.020982633672882126 0.0
0.02192338515441232 -0.027656140115830348 0.0
0.01123073451985089 -0.047630509552842606 0.0
0.014642651213551745 -0.04210363814519561 0.0
0.015396792276516448 -0.04923364830087512 0.0
0.01443737876576041 -0.03793856440113759 0.0
0.0059620769624370955 -0.013938242189250879 0.0
0.025897784969548594 -0.032417385292110204 0.0
0.01565861014951017 -0.05140950646812799 0.0
0.020076206317997287 -0.04589336685197073 0.0
0.01877895118002623 -0.05158353033374167 0.0
0.020702734836129586 -0.04229018563649375 0.0
0.022091469915983743 -0.027587193936835397 0.0
0.018518301857055434 -0.05379910012657608 0.0
0.014106840109881481 -0.028833789411618252 0.0
0.02335847139866957 -0.04463209984671479 0.0
0.02441985496218154 -0.041061331397945634 0.0
0.020841468717095045 -0.05086191281463441 0.0
0.023315718692168017 -0.015758386376360543 0.0
0.014188854133365222 -0.015022117907946053 0.0
0.014748792868005144 -0.05331205031581934 0.0
0.018786249718886656 -0.05153790702999639 0.0
0.00891594353181646 -0.04038381522681646 0.0
0.008036997941798515 -0.036008404198301654 0.0
0.01825958443667426 -0.053281174063974646 0.0
0.013812042717114253 -0.024181372078627805 0.0
0.02276331198901991 -0.033968193825775844 0.0
0.019245105127805508 -0.013668300118263246 0.0
0.019585565732788645 -0.052801765025824426 0.0
0.02380063330882198 -0.008074149434718597 0.0
0.012510397439863105 -0.05018970685059997 0.0
0.007340681522215488 -0.03125785165079945 0.0
0.017863693444444058 -0.053944773795762964 0.0
0.013333844544018357 -0.051791856698684725 0.0
0.019270504044994752 -0.049491559809682555 0.0
0.02537863399426548 -0.03783131956437406 0.0
0.016835952515699026 -0.05454128484888488 0.0
0.01742702666422071 -0.008988076105784053 0.0
0.015751773061868743 -0.053510948799677625 0.0
0.016533032845017656 -0.05276394949568425 0.0
0.01577597204741811 -0.030922077710602618 0.0
0.01609512905778413 -0.044611060144622364 0.0
0.01581525883886476 -0.03582817637368536 0.0
0.016169463514996315 -0.047788055006380795 0.0
0.006356085189669158 -0.021650700021590974 0.0
0.01794264434293348 -0.008550812817053935 0.0
0.021088689186940745 -0.05063846757806703 0.0
0.016863699389493874 -0.0545391486695248 0.0
0.016373315007087313 -0.054358281289443144 0.0
0.013321269437086196 -0.011929404566901293 0.0
0.027564412931576472 -0.025318245701704573 0.0
0.02146303254325337 -0.033804454433184264 0.0
0.021351915413549874 -0.03818382497036157 0.0
0.019877736047957784 -0.04661403500417928 0.0
0.013336188705280454 -0.042608559276348455 0.0
0.013810750980167296 -0.0461260647071443 0.0
0.015144912088065085 -0.05185352414520938 0.0
0.007701464256176028 -0.035859470331676295 0.0
0.006987993789204896 -0.03094913410828029 0.0
0.014143555674389798 -0.0499456332087454 0.0
0.012157570877741877 -0.039316607215310787 0.0
0.012685998242591786 -0.043298922457950056 0.0
0.01943895537160075 -0.03346555844336213 0.0
0.018978726458217927 -0.014146295922232434 0.0
0.010022070748926712 -0.008857857784845411 0.0
0.023402621048579653 -0.007613627095170146 0.0
0.017680089029054078 -0.04775414926752045 0.0
0.018131715475934337 -0.03602580388875216 0.0
0.017329823278129316 -0.052674007576011365 0.0
0.017933086910910778 -0.04455024749254551 0.0
0.018366597737715297 -0.03069671675866223 0.0
0.026142626024618927 -0.029765174047950045 0.0
0.010165476346449124 -0.00687218267753073 0.0
0.02136341744109657 -0.04156315543157453 0.0
0.0199613379257973 -0.04885262699104765 0.0
0.022029743002049854 -0.03737352259817524 0.0
0.015874261623736615 -0.04045043648554508 0.0
0.016284176417380242 -0.04812044198531829 0.0
0.01583822345708525 -0.03603512428244009 0.0
0.018385383718641485 -0.05386528365154908 0.0
0.016329889421574487 -0.05066955026125311 0.0
0.011920330098346376 -0.03776580558583333 0.0
0.011498164475490506 -0.03304402852004461 0.0
0.0198221275713523 -0.05254006177743547 0.0
0.017320114396032923 -0.05433027435039074 0.0
0.014163214617231235 -0.022822180606728283 0.0
0.01575315598668573 -0.02518674704217667 0.0
0.015560042894861936 -0.019438214242852636 0.0
0.014949682193348598 -0.052263526642686096 0.0
0.015825969096383282 -0.03076544873095973 0.0
0.008976807537873152 -0.040525700910245765 0.0
0.009990602402595496 -0.044318643902618214 0.0
0.01694062854614874 -0.05435670583298046 0.0
0.025623420144007734 -0.035584126138706526 0.0
0.022363673624489377 -0.04767795079954841 0.0
0.013113690076181853 -0.04756188907360563 0.0
0.0124630474275846 -0.04428333540359316 0.0
0.010826965105038899 -0.02602795974830195 0.0
0.02852928350533844 -0.006978606827026045 0.0
0.005826946053665273 -0.009137439628045975 0.0
0.01782908830032444 -0.019281436614111327 0.0
0.01754653849922036 -0.05345616123792721 0.0
0.016539395299323807 -0.05260659600766057 0.0
0.016185514838747576 -0.05319873499873921 0.0
0.01493749057898125 -0.008812564084862471 0.0
0.015251966892373472 -0.05384313573468118 0.0
0.0277854971044563 -0.019353154172382595 0.0
0.016097425777785862 -0.02517566968848125 0.0
0.022224058821183196 -0.013201046093321926 0.0
0.015419745901875753 -0.052997806849876414 0.0
0.016300426560044528 -0.04445859017128931 0.0
0.016508199075840783 -0.05086156871827033 0.0
0.016241104660773185 -0.040818033051566796 0.0
0.010955227570160007 -0.02322633415418091 0.0
0.011177901585397398 -0.0323504864071813 0.0
0.010832928316756973 -0.027071577080716086 0.0
0.014049906007156268 -0.04981789026491554 0.0
0.013354188070045162 -0.0470414538666166 0.0
0.017123677377964122 -0.0538650704999382 0.0
0.01360690950243653 -0.05238790243785731 0.0
0.023323251625037206 -0.02171924578891389 0.0
0.02369592536566334 -0.030877918582552902 0.0
0.021575973246112694 -0.044602389741267214 0.0
0.016363287393778556 -0.05346940092872367 0.0
0.01886064978852219 -0.05268068644843854 0.0
0.005617168693892038 -0.025453487857370255 0.0
0.010328605412813422 -0.021121941380801344 0.0
0.010844351758921246 -0.018142309198261104 0.0
0.019680109516173782 -0.027788366991497372 0.0
0.01857821414351759 -0.045983012182711946 0.0
0.01899314552916121 -0.042533308575278234 0.0
0.01790187056925167 -0.051715489491843174 0.0
0.020771002983173026 -0.04795332437619435 0.0
0.015354743201888798 -0.04616811011008156 0.0
0.016038738470713194 -0.05186738998228326 0.0
0.015160656550504494 -0.042708092203206725 0.0
0.02764266803255747 -0.012275122984615921 0.0
0.01677742522073148 -0.054035286662990685 0.0
0.01958999497596768 -0.04261504337607358 0.0
0.019910222495720276 -0.03891619065008132 0.0
0.01860234849415011 -0.0497860999334198 0.0
0.01810776569567013 -0.04923042098834654 0.0
0.012479620145340955 -0.05064638761353303 0.0
0.017153989661370883 -0.054427871728039395 0.0
0.018482668180876426 -0.04631237799458782 0.0
0.019300015596096714 -0.03330390790040501 0.0
0.019238611488476148 -0.02240370676103126 0.0
0.022474096287633104 -0.0473762429636136 0.0
0.010502355182991347 -0.012281534886262385 0.0
0.022961138225099972 -0.011628026678655807 0.0
0.024886290025844558 -0.040121729926168796 0.0
0.009334432456674664 -0.020476321288894275 0.0
0.015618917055836677 -0.053812557329501 0.0
0.02324500131484696 -0.017743762281931787 0.0
0.022427950539607958 -0.018217172200120157 0.0
0.017770006696102354 -0.051706698646731025 0.0