<VTKFile type="UnstructuredGrid"  version="0.1">
<UnstructuredGrid>
<Piece NumberOfPoints="713" NumberOfCells="1304">
<Points>
<DataArray type="Float64" NumberOfComponents="3" format="ascii">
0.0 0.0 0.0
10.0 0.0 0.0
10.0 2.0 0.0
5.0 2.0 0.0
0.0 2.0 0.0
0.199999999999856 0.0 0.0
0.3999999999996677 0.0 0.0
0.5999999999994683 0.0 0.0
0.7999999999993286 0.0 0.0
0.9999999999991888 0.0 0.0
1.199999999999033 0.0 0.0
1.399999999998576 0.0 0.0
1.599999999997992 0.0 0.0
1.799999999997408 0.0 0.0
1.999999999996825 0.0 0.0
2.199999999996241 0.0 0.0
2.399999999995657 0.0 0.0
2.599999999995073 0.0 0.0
2.79999999999449 0.0 0.0
2.999999999993906 0.0 0.0
3.199999999993322 0.0 0.0
3.399999999992738 0.0 0.0
3.599999999992154 0.0 0.0
3.799999999991571 0.0 0.0
3.999999999991022 0.0 0.0
4.199999999991187 0.0 0.0
4.399999999991491 0.0 0.0
4.599999999991795 0.0 0.0
4.799999999992099 0.0 0.0
4.999999999992403 0.0 0.0
5.199999999992706 0.0 0.0
5.39999999999301 0.0 0.0
5.599999999993313 0.0 0.0
5.799999999993618 0.0 0.0
5.999999999993922 0.0 0.0
6.199999999994227 0.0 0.0
6.39999999999453 0.0 0.0
6.599999999994833 0.0 0.0
6.799999999995138 0.0 0.0
6.999999999995442 0.0 0.0
7.199999999995747 0.0 0.0
7.39999999999605 0.0 0.0
7.599999999996353 0.0 0.0
7.799999999996658 0.0 0.0
7.999999999996962 0.0 0.0
8.199999999997265 0.0 0.0
8.399999999997569 0.0 0.0
8.599999999997873 0.0 0.0
8.799999999998176 0.0 0.0
8.99999999999848 0.0 0.0
9.199999999998786 0.0 0.0
9.399999999999089 0.0 0.0
9.599999999999392 0.0 0.0
9.799999999999697 0.0 0.0
10.0 0.1999999999996293 0.0
10.0 0.3999999999991157 0.0
10.0 0.5999999999985328 0.0
10.0 0.7999999999979498 0.0
10.0 0.9999999999973885 0.0
10.0 1.199999999997894 0.0
10.0 1.39999999999842 0.0
10.0 1.599999999998947 0.0
10.0 1.799999999999474 0.0
9.799999999999999 2.0 0.0
9.6 2.0 0.0
9.399999999999999 2.0 0.0
9.2 2.0 0.0
8.999999999999998 2.0 0.0
8.799999999999999 2.0 0.0
8.599999999999998 2.0 0.0
8.399999999999999 2.0 0.0
8.2 2.0 0.0
7.999999999999998 2.0 0.0
7.799999999999999 2.0 0.0
7.599999999999999 2.0 0.0
7.399999999999999 2.0 0.0
7.199999999999999 2.0 0.0
7.0 2.0 0.0
6.799999999999999 2.0 0.0
6.6 2.0 0.0
6.399999999999999 2.0 0.0
6.199999999999999 2.0 0.0
5.999999999999999 2.0 0.0
5.8 2.0 0.0
5.6 2.0 0.0
5.399999999999999 2.0 0.0
5.199999999999999 2.0 0.0
4.8 2.0 0.0
4.6 2.0 0.0
4.399999999999999 2.0 0.0
4.199999999999998 2.0 0.0
3.999999999999999 2.0 0.0
3.799999999999999 2.0 0.0
3.599999999999999 2.0 0.0
3.399999999999999 2.0 0.0
3.199999999999998 2.0 0.0
2.999999999999999 2.0 0.0
2.799999999999999 2.0 0.0
2.599999999999999 2.0 0.0
2.399999999999999 2.0 0.0
2.199999999999999 2.0 0.0
2.0 2.0 0.0
1.799999999999999 2.0 0.0
1.599999999999999 2.0 0.0
1.399999999999999 2.0 0.0
1.199999999999999 2.0 0.0
0.9999999999999991 2.0 0.0
0.7999999999999998 2.0 0.0
0.5999999999999996 2.0 0.0
0.3999999999999995 2.0 0.0
0.1999999999999993 2.0 0.0
0.0 1.799999999999167 0.0
0.0 1.6 0.0
0.0 1.400000000001387 0.0
0.0 1.200000000002774 0.0
0.0 1.000000000004117 0.0
0.0 0.8000000000033287 0.0
0.0 0.6000000000024965 0.0
0.0 0.4000000000016644 0.0
0.0 0.200000000000832 0.0
1.499207686858938 0.9671416246672391 0.0
2.690335006295381 0.9619521672166851 0.0
3.892537609238439 1.007271393615351 0.0
8.916602958236062 0.9848120741100651 0.0
7.714518201951718 1.024234589865042 0.0
6.514518201951581 1.024234589865268 0.0
5.299999999999998 1.000000000000349 0.0
0.7620577975594133 1.201991596673393 0.0
4.61755859746166 1.240410629378135 0.0
2.099999999996533 0.6749999999988996 0.0
3.289480163184942 0.6802242156869155 0.0
8.299999999999976 1.325000000000064 0.0
7.110519836808121 1.319775784312006 0.0
5.893184537067197 1.292851873188582 0.0
3.268568008578649 1.341967835735878 0.0
2.118368267083699 1.321829331075689 0.0
5.930896443153832 0.6493414313150682 0.0
7.106926174231782 0.6329785805444448 0.0
8.306926174233002 0.6329785805444098 0.0
4.427960725065653 0.6389803625370323 0.0
0.9828791719046732 0.6520555711814596 0.0
9.383333333333349 0.6166666666667164 0.0
9.383333333333326 1.383333333333367 0.0
4.974443803660211 0.5526668589022862 0.0
1.248084267804327 1.464555585366204 0.0
4.139486343919472 1.468449088519687 0.0
5.077806736162063 1.478342020848787 0.0
1.629462398503482 0.5098631373669138 0.0
2.579462070540726 0.5133714280880515 0.0
3.770778974032556 0.5099482598296803 0.0
8.764748922637567 1.526880805960684 0.0
7.820537929455645 1.486628571911716 0.0
6.632254923791462 1.492045881343967 0.0
2.796478414430566 1.477149214423874 0.0
6.403521585563812 0.5228507855762514 0.0
7.603521585564883 0.5228507855756581 0.0
8.783559188644787 0.5066440811355862 0.0
0.5060338924245764 0.5082251307884346 0.0
5.451633334958382 0.4799315318847731 0.0
1.683269995544083 1.547372422998862 0.0
0.448590368789599 1.551409631210402 0.0
5.545526974704655 1.582008455135239 0.0
3.666056976948354 1.56999765613834 0.0
0.4385739326402744 0.9352922270094057 0.0
9.58170539854767 0.9922137522194456 0.0
4.93200119575972 0.9247090920592975 0.0
6.20679636316332 1.642443126922768 0.0
7.418963044745086 1.587405313446662 0.0
2.98103695524982 0.412594686552066 0.0
2.420975602092416 1.592770352831584 0.0
7.97902439790374 0.4072296471687943 0.0
6.779024397902082 0.4072296471687297 0.0
1.130444757308209 0.9859238872709168 0.0
0.8901814758011342 1.60566856081121 0.0
4.263670373274499 0.9915754392410991 0.0
3.096698167273431 1.009056907826855 0.0
6.088506433998166 0.9857489435828969 0.0
1.902225037409936 1.003483800311746 0.0
7.288506433998439 0.9857489435828686 0.0
8.498964973312972 1.005823551167602 0.0
2.307571737417198 1.008136792450924 0.0
8.100397971125554 1.000138280273345 0.0
6.900397971125225 1.000138280273792 0.0
3.499307350770321 0.9996496628144824 0.0
5.703656022566558 0.9885479657552226 0.0
4.719420624357892 1.622286409566126 0.0
4.099803549896894 0.3600308081356619 0.0
1.286100671532495 0.3637431910670685 0.0
9.120549139677793 1.655065205594329 0.0
9.11726214008418 0.3400668903113251 0.0
4.642568097328033 0.3514924793220939 0.0
9.630437629189052 0.3309104953729904 0.0
9.674493769554315 1.668196579944218 0.0
1.936458797611609 0.3337070483410596 0.0
3.461817573918652 0.3447876019040473 0.0
8.440152788772068 1.649667667046397 0.0
6.973083089482548 1.643748677366674 0.0
3.126874515006838 1.659115470008545 0.0
6.070607878384977 0.3410183041038941 0.0
7.255014454789089 0.32792256737713 0.0
8.462493615948901 0.3368393217476116 0.0
9.236261261261264 0.9276047786917867 0.0
5.885444386845415 1.667751020273455 0.0
0.8062340689595878 0.3261579034781319 0.0
2.29463843780282 0.308358158429197 0.0
8.10536156219338 1.691641841570632 0.0
4.041916759198581 0.7211683801597477 0.0
1.324377365289917 0.710525897087282 0.0
9.023167917315867 1.292262965009952 0.0
2.044244009166302 1.693807225416931 0.0
0.7675765545556328 0.8969765944392112 0.0
2.86965991063896 0.7069213925303978 0.0
6.330340089355722 1.293078607468788 0.0
7.530340089355831 1.29307860746885 0.0
2.509347777214458 1.27231292939881 0.0
7.890652222779963 0.7276870706009825 0.0
6.690652222780154 0.7276870706013264 0.0
4.380959112578968 1.65866292149053 0.0
0.3278422400819535 1.233362752678148 0.0
5.754468991464942 0.3469215055361071 0.0
9.69195804401614 0.7000195364707393 0.0
9.691250997975434 1.303243780084337 0.0
5.54324561063747 1.237401556904767 0.0
9.044596057577811 0.6843248705785732 0.0
5.208929198448351 0.3519433027337513 0.0
3.708880196230617 1.249762029554333 0.0
1.713349558540635 1.234899745098077 0.0
4.586522821995393 0.9261740906803194 0.0
5.241145838821565 0.7007005766013242 0.0
1.434457446926135 1.701926055218157 0.0
0.2821921707428039 0.3393165318407161 0.0
3.42846431357046 1.714274134409306 0.0
5.26283485467567 1.710141275531951 0.0
3.966530105129177 1.718376080180638 0.0
4.891301048299285 1.259923533724591 0.0
0.2787500712946937 0.6906723798523376 0.0
1.822166578929051 0.7301892210727335 0.0
8.593276160688786 1.287322908694633 0.0
2.386017956680413 0.7288816957021155 0.0
3.576911792171353 0.7225526638483954 0.0
8.013982043315597 1.271118304297217 0.0
6.82303669320588 1.277631295759485 0.0
2.891837633696712 1.215141906356511 0.0
8.708162366297856 0.7848580936429009 0.0
7.496736072543097 0.7897651325976158 0.0
6.296736072542775 0.7897651325982009 0.0
5.523181420933933 0.7588744249744506 0.0
4.725538117155759 0.6529070682798582 0.0
2.736307197014292 0.273961667653487 0.0
7.663692802980817 1.726038332346062 0.0
6.446842959287713 1.783714797320288 0.0
1.126188383272983 1.743715177525389 0.0
2.64757240694847 1.787239829472812 0.0
6.546646507559373 0.2589894635657943 0.0
7.746646507561152 0.2589894635657218 0.0
4.079302268890254 1.221431431691139 0.0
4.433746883463333 0.2983726043497702 0.0
1.032697650548726 1.318076986199429 0.0
1.309492735411376 1.208980965369829 0.0
3.896105387998365 0.2579746081881307 0.0
9.378751775005455 1.725996478164223 0.0
9.3965279828929 0.2649862374471925 0.0
1.515757555362918 0.2603060454608533 0.0
4.959097093232828 1.726144293543605 0.0
4.912501341257775 0.2529154558175828 0.0
4.342421824442713 1.285376618065631 0.0
7.023506283123107 0.293611963231815 0.0
8.215829626877609 0.2682061590942965 0.0
5.28145265730745 1.291130016052329 0.0
8.693992162747364 1.744100892812201 0.0
0.6256567126095668 1.775064851453201 0.0
0.2724967459749605 1.756941612685287 0.0
8.90781713264278 0.2741674349222226 0.0
7.184202236567151 1.709454269177068 0.0
3.212962614055919 0.2641656831057426 0.0
0.6761590188374282 0.6746441670621973 0.0
1.020489328989316 0.2487299689497893 0.0
1.485017749467193 1.402133856149482 0.0
6.734223224917944 1.790518105434539 0.0
2.657549589911705 0.7636227781082678 0.0
6.542590471647475 1.237213715285722 0.0
7.742745187066703 1.235538225115726 0.0
0.5794341726414672 0.2480285055479751 0.0
1.842901067642841 1.760146518280044 0.0
3.84389577648662 0.7524680119172447 0.0
3.061589173628368 1.407936939342627 0.0
6.144447294584154 0.5911674363009913 0.0
7.344447294585433 0.5911674362995804 0.0
8.544447294586682 0.5911674362982269 0.0
5.491507940982565 0.1734458797927824 0.0
[...]
<PointData Vectors="fields">
<DataArray type="Float64" Name="U" NumberOfComponents="3" format="ascii">
0.0 0.0 0.0
0.039449888293690755 0.0 0.0
0.0032338657211484607 -0.007373633788394476 0.0
0.019570150115472577 -0.06312770865270179 0.0
0.03600404453407843 -0.006850538075353029 0.0
0.00039874308572584267 -0.007523469087388532 0.0
0.0012169916728809308 -0.012365855919693358 0.0
0.0019553191547198073 -0.01664007419418849 0.0
0.002576480139447726 -0.020399371335714504 0.0
0.0031208669863014623 -0.023984710164740707 0.0
0.003646125199745511 -0.027428789380822376 0.0
0.0041745745367435414 -0.03074408976252718 0.0
0.004754204005425497 -0.033947512671693006 0.0
0.005352917618607209 -0.037040540571865864 0.0
0.0059989375703154175 -0.03999045907761859 0.0
0.006676426769892451 -0.04279654728432149 0.0
0.007414021396558779 -0.04546037310435783 0.0
0.008164183196976444 -0.047960731506655266 0.0
0.008989564106189334 -0.05029735536343818 0.0
0.009812825968166235 -0.05246101949578682 0.0
0.010703054214376487 -0.05444218783418694 0.0
0.011597794573987717 -0.056224805524708744 0.0
0.012540838325427303 -0.057821083827005126 0.0
0.013493412520118004 -0.05917937425547022 0.0
0.014457982023667774 -0.060395994933252685 0.0
0.015464176455615894 -0.06137578332851993 0.0
0.016460437987118846 -0.06213540938548304 0.0
0.01748621073052068 -0.06268882100750112 0.0
0.018494695763522126 -0.0630134976736581 0.0
0.019543029669112928 -0.06312991038903769 0.0
0.020561227148028372 -0.06302828023115639 0.0
0.021577764537586246 -0.06270440625099108 0.0
0.022588396505617808 -0.062168278730376586 0.0
0.0235851669710872 -0.061413200086341685 0.0
0.024553996599951163 -0.060456132562254045 0.0
0.025542098155374143 -0.05930420475631898 0.0
0.026475455408795458 -0.05789482477115632 0.0
0.027410830866558083 -0.056351682662109666 0.0
0.028303372946152896 -0.05460806707750596 0.0
0.029193300562145967 -0.05264676476356635 0.0
0.0300322625682036 -0.05050859686091762 0.0
0.030840734031715687 -0.04820295776771117 0.0
0.031590787271584674 -0.045692374354259005 0.0
0.03232458547968856 -0.04307941857112466 0.0
0.03300295732155909 -0.040307938354255564 0.0
0.03365695286198092 -0.037381024790071785 0.0
0.03425960129822008 -0.03431109283021869 0.0
0.034837627520551515 -0.031130056468834835 0.0
0.03536720580541939 -0.027826344296627312 0.0
0.03590905805325795 -0.024394263801781252 0.0
0.036441416846946975 -0.02083599193808499 0.0
0.037033517834897084 -0.01707507016731487 0.0
0.03769161722455621 -0.012990078346709082 0.0
0.03870462961429649 -0.00811409451416606 0.0
0.03329266182179454 -0.0028954108673011868 0.0
0.02931929522417173 -0.004493688846313355 0.0
0.025722901845443423 -0.005510000114840201 0.0
0.022424099744839516 -0.0062778263950659455 0.0
0.01922682616268127 -0.0067620970180431944 0.0
0.016088595120227957 -0.007078522530358823 0.0
0.012953344974506781 -0.007269693593568498 0.0
0.009770379941498548 -0.007355499807811761 0.0
0.006529049280892454 -0.0073734242729060874 0.0
0.0032314130482396543 -0.010681393917506297 0.0
0.0032411855994217273 -0.01403297896219387 0.0
0.0033049048870928727 -0.017437451973750243 0.0
0.003450967695327512 -0.020877278478337393 0.0
0.0036917926876553608 -0.024303128436297835 0.0
0.00401722694324709 -0.02766974416504312 0.0
0.00443182911041552 -0.030990026693764314 0.0
0.0049161501831856864 -0.03419184882384302 0.0
0.005471031230955393 -0.037274293239616216 0.0
0.006102650291544439 -0.04023205340939547 0.0
0.006762773996365399 -0.04303549636818329 0.0
0.007504444150220245 -0.045689773585068566 0.0
0.008254743062049305 -0.048179573882416026 0.0
0.009075040298048538 -0.050495951182038035 0.0
0.00991865040228264 -0.05264034505495901 0.0
0.010795485014173533 -0.05459720317549288 0.0
0.011679187047248213 -0.056320658794004566 0.0
0.01261157754826367 -0.05793031873261147 0.0
0.013565757632498673 -0.059289494786361335 0.0
0.014514341840702698 -0.06045287455056704 0.0
0.015504441330924153 -0.06142086701401883 0.0
0.016525407865895146 -0.06216750818617123 0.0
0.017512317002520476 -0.0627009993252559 0.0
0.01854667369209534 -0.06302464394529703 0.0
0.020621778654745047 -0.06299668207458294 0.0
0.021632154388006475 -0.06266937781705548 0.0
0.022638113561037017 -0.06212880334646402 0.0
0.02366874314612978 -0.061384156111165926 0.0
0.024687062246258766 -0.060396374415623746 0.0
0.025696074087185432 -0.05920203478047912 0.0
0.02663443349660965 -0.05781294136631231 0.0
0.027576772126752948 -0.056219125802038195 0.0
0.028482553724273246 -0.054438389182525596 0.0
0.02937094467845797 -0.05246058042607715 0.0
0.030196950309242347 -0.05025783880346498 0.0
0.031013003026672155 -0.04794879690500251 0.0
0.0317696614017566 -0.04542909229090373 0.0
0.03247998182982795 -0.0427492793649242 0.0
0.033166093035239055 -0.03991634790156211 0.0
0.03378797515994173 -0.03693796610633077 0.0
0.03433308735376606 -0.03383606237118918 0.0
0.034834205571514856 -0.030604029319387382 0.0
0.03524084167666857 -0.02727831410851749 0.0
0.035566034893726894 -0.023870278016801773 0.0
0.03579189671578786 -0.020429778920057807 0.0
0.03592696661520905 -0.016972547731350037 0.0
0.03599340229095575 -0.013551785724765257 0.0
0.0360090909550399 -0.01017516013389231 0.0
0.032687733810439594 -0.006852223310940487 0.0
0.029423455624194433 -0.006835277309723662 0.0
0.026221623593849493 -0.0067570351207269985 0.0
0.023054930239875638 -0.0065772782561639405 0.0
0.019898541054150613 -0.006245544127958659 0.0
0.016681510217810565 -0.005775458141752373 0.0
0.013362320037089629 -0.005024223724322504 0.0
0.009776821050919112 -0.003985108070950784 0.0
0.005520997048702371 -0.002252675527786064 0.0
0.019175361468594145 -0.032492935083150765 0.0
0.01917643364874625 -0.04936707245127956 0.0
0.019606698139286914 -0.060196873365195545 0.0
0.019606280846805314 -0.02589358082199799 0.0
0.01925176925430988 -0.044512921281558704 0.0
0.019375057436768112 -0.05744784249728824 0.0
0.019551721836863663 -0.06331775990562519 0.0
0.023008337130004747 -0.01978547061079524 0.0
0.020024872889395993 -0.06312486406953455 0.0
0.015404443477603152 -0.04165271560684719 0.0
0.016934981368321042 -0.05560408763006238 0.0
0.014989858650345265 -0.035979505744053474 0.0
0.01640721336812254 -0.05179310802139895 0.0
0.018269190740227433 -0.06138411245334246 0.0
0.02244695845545762 -0.05541255164204397 0.0
0.023712352887913735 -0.04187550711933378 0.0
0.021149461205755993 -0.06118752734662316 0.0
0.023159409922248093 -0.05183952753412184 0.0
0.024661611241896624 -0.03595206156593826 0.0
0.018529294390529073 -0.06260563136559474 0.0
0.014280674854961152 -0.023747829901643036 0.0
0.025403256032705133 -0.017467497024903862 0.0
0.013281643216680976 -0.017700699256992868 0.0
0.019487905897776343 -0.0634656251313909 0.0
0.026689991932063045 -0.02822206404444198 0.0
0.021598921050321764 -0.06142757556036746 0.0
0.01936461628542076 -0.063435618981218 0.0
0.01256563868934982 -0.03457705467347049 0.0
0.014112492359611702 -0.04795910253805871 0.0
0.01658451836605604 -0.05932372934048937 0.0
0.011546891174607438 -0.02839484884589165 0.0
0.013444600208214266 -0.042979811461108346 0.0
0.01569205619159289 -0.05637300823231474 0.0
0.024535799342457133 -0.05051080245934658 0.0
0.02279657332622401 -0.0582010098681679 0.0
0.02516779251937466 -0.04591010787593296 0.0
0.027013533840759177 -0.028220143380839054 0.0
0.011806763916629515 -0.014822721403340296 0.0
0.02072035665953934 -0.062899931983305 0.0
0.027367846560736056 -0.035307503739727 0.0
0.028605548934979783 -0.014347479190033815 0.0
0.017973778217201933 -0.06262123639101343 0.0
0.023357233968871353 -0.05856958850386727 0.0
0.018928657040601614 -0.013817446388223716 0.0
0.019289174435176706 -0.013969573582678037 0.0
0.01952988417062269 -0.063558715479066 0.0
0.015750308994968213 -0.05948514734264199 0.0
0.013020686088052002 -0.04816452995686491 0.0
0.013917567556473701 -0.05249781475998221 0.0
0.026611889107612505 -0.04591276260096838 0.0
0.027323267728940996 -0.040778378890793596 0.0
0.02459548686599257 -0.05503565389080804 0.0
0.019526880454989196 -0.02629347057591008 0.0
0.02921902574758864 -0.02203770317204146 0.0
0.01953586646661449 -0.062069768994086796 0.0
0.019666002064674844 -0.05380308740728292 0.0
0.01962831051722476 -0.0603799310462867 0.0
0.01965678623604547 -0.038781854263317594 0.0
0.019702171303190148 -0.04983700119967643 0.0
0.019393343091002383 -0.03289235053503956 0.0
0.01969028681145788 -0.04453487056684044 0.0
0.019522520794480164 -0.03906732516811065 0.0
0.019547900079101548 -0.054006478371388555 0.0
0.01957258028042846 -0.057443269309195105 0.0
0.019581711345142933 -0.062227887834449644 0.0
0.020447703941248185 -0.0631836286128822 0.0
0.016673252635452232 -0.0611720038012024 0.0
0.009843781081154213 -0.028993719385479684 0.0
0.00918946519721691 -0.022291987772197767 0.0
0.03011929701053434 -0.022412021287380256 0.0
0.018380282775686693 -0.06303531084159805 0.0
0.030502102540347815 -0.01240908560811094 0.0
0.008690941644033357 -0.012755249836177448 0.0
0.010551441167760597 -0.03922321388110775 0.0
0.014618119017573799 -0.05698330352246924 0.0
0.01015211296395251 -0.03368807431710435 0.0
0.013525578835343404 -0.053131176359961424 0.0
0.025558184117715058 -0.053947790566748054 0.0
0.023027321761180032 -0.060313307157360045 0.0
0.02662357378236426 -0.050085433643520014 0.0
0.02922373223704008 -0.03346786764317478 0.0
0.02039263729860624 -0.020234882184374352 0.0
0.01662552098593864 -0.06127308561637589 0.0
0.008615505727662814 -0.020592067762632445 0.0
0.011029964615202309 -0.044240347746054044 0.0
0.010181337270905182 -0.038833590616541805 0.0
0.018238756633290956 -0.06101367751775176 0.0
0.015318841080011185 -0.02963724334646082 0.0
0.01488282710504476 -0.024012200253633327 0.0
0.028751685218315646 -0.04071392899770224 0.0
0.018241722257231224 -0.01985481751006777 0.0
0.01664312943981664 -0.05140105655669637 0.0
0.01766926766225689 -0.05880428403973493 0.0
0.01619606007711961 -0.046882189555733506 0.0
0.022699120353983922 -0.04712154784919429 0.0
0.02300529952563859 -0.04209359781817233 0.0
0.02174972677832175 -0.055941382892073475 0.0
0.021635494631670405 -0.062326891946699874 0.0
0.023619475667687944 -0.01209037536568571 0.0
0.021996131176586314 -0.06184705743271191 0.0
0.023942137570739715 -0.011569358643265963 0.0
0.014448649958170115 -0.012308727244398934 0.0
0.01891486122997419 -0.06274113768873571 0.0
0.024290733324203406 -0.023684064902360642 0.0
0.02022375399339566 -0.06327552354152445 0.0
0.021164654962173478 -0.05898687513912752 0.0
0.022911374316688417 -0.03586157169088626 0.0
0.019412630610271965 -0.06307879851602552 0.0
0.01990555459949533 -0.06337890688556008 0.0
0.030058622982446003 -0.03127538557488459 0.0
0.008724130497686212 -0.009963857155840075 0.0
0.025122145094705953 -0.05665313782487382 0.0
0.018622481533810856 -0.06316943111099613 0.0
0.02331257642044273 -0.060435007109770414 0.0
0.019699259419144518 -0.06348565154162397 0.0
0.01498871118359051 -0.010523708131599625 0.0
0.01590072611784179 -0.037575700753998256 0.0
0.015270224114326464 -0.03129584410824506 0.0
0.016372690652239886 -0.045556471496944514 0.0
0.017648990819945854 -0.05801515883001354 0.0
0.01599471686646933 -0.040292648063892114 0.0
0.017164214572485643 -0.05471733738300136 0.0
0.021721353600798916 -0.05163624341490961 0.0
0.022660489491356666 -0.02947494883383957 0.0
0.021929837972956872 -0.04731252589994843 0.0
0.020872129833788 -0.059033107206152347 0.0
0.020170732752757783 -0.06279933567221983 0.0
0.019074137208473917 -0.06329804002103351 0.0
0.01180844367872174 -0.04973594228742891 0.0
0.010767006736317267 -0.04500961071624816 0.0
0.014005686160147711 -0.05771718434408258 0.0
0.031172226030051278 -0.026094594143604783 0.0
0.02832398158810545 -0.04863949224711092 0.0
0.02512769053886012 -0.05697162779025099 0.0
0.0287540928980327 -0.04393810338745088 0.0
0.02058459667466882 -0.06120384453351837 0.0
0.017538285804226457 -0.06246456104699638 0.0
0.024641354166362005 -0.024549011133418314 0.0
0.022809373860513217 -0.029306455053525533 0.0
0.01545211420130918 -0.05999762508526922 0.0
0.00785790613264366 -0.017816266954847476 0.0
0.03177299916213683 -0.01720411682529105 0.0
0.008602089797042562 -0.032732238725973764 0.0
0.01971336402560398 -0.06333591978842672 0.0
0.01921219805849374 -0.06330002650587982 0.0
0.020506435188821115 -0.06232818917864298 0.0
0.02632582785077952 -0.052586260138402126 0.0
0.029750737113310766 -0.037259754144794564 0.0
0.019145798772357538 -0.06330902454755515 0.0
0.008309494860296735 -0.02952306914797487 0.0
0.03214652482578776 -0.017432608097141485 0.0
0.031967545641114474 -0.011380292280150526 0.0
0.03098020702934989 -0.026088566832305614 0.0
0.012273883457504816 -0.0508450732173626 0.0
0.013176949131073104 -0.05473655793349123 0.0
0.014652659800254778 -0.018148037829717214 0.0
0.0075185572109463 -0.024423533242384516 0.0
0.025511972781078418 -0.03217011126493477 0.0
0.012921060682506855 -0.055321319805561 0.0
0.017007769591752202 -0.04896218431317671 0.0
0.017793380018774365 -0.05719705680667869 0.0
0.016668093168224846 -0.04410427101075478 0.0
0.006953608795003468 -0.016251872069320845 0.0
0.030133715253455762 -0.0376971551269842 0.0
0.018151597048826972 -0.059865986828475444 0.0
0.02335895328627352 -0.053381892062910996 0.0
0.02182722148483232 -0.05996965566841072 0.0
0.023949266791389645 -0.04912616383119099 0.0
0.02548263047790506 -0.03217690702895213 0.0
0.021587682305862152 -0.06262558756015221 0.0
0.01641136635095938 -0.0335385553910027 0.0
0.027187302710595197 -0.05190826069678634 0.0
0.0282432019473499 -0.04770994844142379 0.0
0.024268641209560456 -0.059115606238903266 0.0
0.027126770098322386 -0.0183584725811069 0.0
0.016362295481354913 -0.017654624780195614 0.0
0.01701251024390315 -0.06202892750301994 0.0
0.02185353501649223 -0.060012764457661426 0.0
0.010337504255477518 -0.04695919147482302 0.0
0.009275579471505825 -0.04187687148066741 0.0
0.02124218625602685 -0.06199898262035896 0.0
0.015932516788425343 -0.02824198544907061 0.0
0.02648837743658451 -0.03950124432908974 0.0
0.022390370446719186 -0.0159344202861821 0.0
0.02278740783758155 -0.06149894468594372 0.0
0.02768834202372848 -0.009431095102959657 0.0
0.014432358595521555 -0.058423475858180425 0.0
0.008541461827271179 -0.03635167632751176 0.0
0.0207392795127753 -0.06285175999054328 0.0
0.015348348204743865 -0.06021378298401127 0.0
0.022423497936232044 -0.05759870397813322 0.0
0.02952911031425231 -0.04398922508839353 0.0
0.01952669031911293 -0.06353625571955786 0.0
0.020273203729050924 -0.010499621690830775 0.0
0.018213707768218464 -0.0622704199454366 0.0
0.019149736677420894 -0.06137620503562566 0.0
0.018204730550421072 -0.03602099603591758 0.0
0.01860169136396873 -0.0518093400118384 0.0
0.01839257438064252 -0.04166443648141212 0.0
0.018771760394811744 -0.0555995457488168 0.0
0.007322844031359296 -0.025312698341538063 0.0
0.020691790202609268 -0.010157650200218363 0.0
0.024567601565968798 -0.05894570133134835 0.0
0.019579663769079263 -0.06353876656323289 0.0
0.01895098266927763 -0.06330152051321689 0.0
0.015498232586127349 -0.013920428700509463 0.0
0.03179370491831007 -0.029557101831467453 0.0
0.024770766263324456 -0.03934245027506575 0.0
0.02484322185970363 -0.044402385792515105 0.0
0.02303954237351002 -0.05413719691254119 0.0
0.015392754000886806 -0.049491595539699576 0.0
0.016006936925109697 -0.05365283269290443 0.0
0.017494411678484378 -0.06028935395541864 0.0
0.00894819513666815 -0.041698149428138306 0.0
0.008062460165679722 -0.03604480156680705 0.0
0.016316412324076688 -0.05803364949967058 0.0
0.014031964448333316 -0.045692203419828895 0.0
0.014712672465297323 -0.0503535844137348 0.0
0.022618168700724316 -0.03891852414691256 0.0
0.02188619078379423 -0.016638507021692027 0.0
0.011553641124178098 -0.010528856531862677 0.0
0.026992804690679252 -0.009042646408506747 0.0
0.02055066604131229 -0.05555949907656951 0.0
0.021092659435282744 -0.04189422304760811 0.0
0.020105643507403594 -0.06126926138763479 0.0
0.02074567659400615 -0.05173922827774338 0.0
0.021192127389235836 -0.035762120338456646 0.0
0.030418419651764853 -0.03461678011564525 0.0
0.011830031425065224 -0.008047957826858548 0.0
0.024855835336906454 -0.04833380922616713 0.0
0.023174564148475994 -0.05674995810949081 0.0
0.02544356618861564 -0.04345404455864402 0.0
0.018451990490390327 -0.047038925997098545 0.0
0.018834912133763523 -0.05589291934474809 0.0
0.018284091544602216 -0.04191178064488655 0.0
0.021345538224454504 -0.06274949490657974 0.0
0.018949857221181154 -0.058990905887180374 0.0
0.01384922209972507 -0.043915613708506794 0.0
0.013270024491570331 -0.03846397449478268 0.0
0.02311079753044842 -0.0611102212422739 0.0
0.02009197223184262 -0.06330260477996286 0.0
0.016479377522086884 -0.026560004282590064 0.0
0.018329050174358825 -0.02930447882906696 0.0
0.017945976550095832 -0.022762424868573092 0.0
0.017310757255871993 -0.0608746185131197 0.0
0.018411122249819552 -0.03578205888960664 0.0
0.010352406860624833 -0.04708533005650393 0.0
0.011550543566068435 -0.05154250301569633 0.0
0.019657425010792793 -0.06333861475418363 0.0
0.029581512407305534 -0.041392553131641224 0.0
0.025967229175260977 -0.055380153403274124 0.0
0.015172405378631914 -0.05533444643862627 0.0
0.014375547494148912 -0.051429837941963305 0.0
0.012599201253940212 -0.030280161015061213 0.0
0.032942172999937194 -0.008275087581351056 0.0
0.006708572657189478 -0.010853220143386463 0.0
0.020744449262648346 -0.022450562847038155 0.0
0.020378942557608987 -0.06220890197430296 0.0
0.019192578752956206 -0.06128175555446094 0.0
0.01877375130166572 -0.06198163526240866 0.0
0.017225973650691284 -0.010469664984149299 0.0
0.017603595388432317 -0.06266973543559251 0.0
0.03232263243680668 -0.022530040798341686 0.0
0.01856973546844908 -0.029392136019116402 0.0
0.025856285043861265 -0.015389385496925697 0.0
0.017868900130576012 -0.0617428843073108 0.0
0.018938562131219555 -0.05170644050552066 0.0
0.019111239676238265 -0.0591142736608118 0.0
0.01876078048450315 -0.04742380666079065 0.0
0.012749985251645293 -0.027028462072048044 0.0
0.012999010877767846 -0.03762240114913013 0.0
0.012496565237268312 -0.03157576474610314 0.0
0.016254914091077332 -0.05798675162114815 0.0
0.015402614122817432 -0.05463395963569186 0.0
0.019876971605382827 -0.06276554297647832 0.0
0.015726185322689008 -0.06101522018605859 0.0
0.02713852765762966 -0.025277827613932977 0.0
0.027337247175778904 -0.03597016813391713 0.0
0.02499232963991549 -0.05180339194683162 0.0
0.018948601658227097 -0.062222325233533375 0.0
0.021953339937457413 -0.061277993390227985 0.0
0.006549436285901591 -0.029611375897555803 0.0
0.011909802964601014 -0.024704652846917658 0.0
0.01250390688087506 -0.021261593249133227 0.0
0.02270302477679784 -0.03240911341115907 0.0
0.02160535840427111 -0.053486527194739605 0.0
0.02196472073910533 -0.04940539206846562 0.0
0.020779501558083127 -0.06012617738740189 0.0
0.024180023004069563 -0.05579142651550597 0.0
0.01782125209112301 -0.05370227283393978 0.0
0.018556546396553544 -0.06030660122530438 0.0
0.01751062812466788 -0.049606429060996986 0.0
0.03215462040221121 -0.014311716805406677 0.0
0.019451846899191667 -0.06290786121131858 0.0
0.022787680699744427 -0.04955889568889964 0.0
0.02300252360050048 -0.04523141651412273 0.0
0.02158513863214327 -0.057845413746651794 0.0
0.021053624418245508 -0.05729275903899809 0.0
0.014353022479726767 -0.05885811950983257 0.0
0.019942180467700472 -0.06339713957282665 0.0
0.02140250368938291 -0.05378510331928171 0.0
0.022273671931315107 -0.038766077958035605 0.0
0.022190591995781356 -0.026192590158175016 0.0
0.02617048217867889 -0.05511461440232204 0.0
0.012107778948669596 -0.014486124978427379 0.0
0.026483423109243925 -0.013713299967288884 0.0
0.02895689387979311 -0.046653584373115176 0.0
0.010868340614373646 -0.023837158115018714 0.0
0.018114342668677803 -0.06269983836627561 0.0
0.026813052079675315 -0.02080515924320382 0.0
0.026095683959981644 -0.021213286380624426 0.0
0.020652166172849366 -0.06021481762444251 0.0
0.02049974802734837 -0.06312074177416857 0.0