<VTKFile type="UnstructuredGrid"  version="0.1">
<UnstructuredGrid>
<Piece NumberOfPoints="713" NumberOfCells="1304">
<Points>
<DataArray type="Float64" NumberOfComponents="3" format="ascii">
0.0 0.0 0.0
10.0 0.0 0.0
10.0 2.0 0.0
5.0 2.0 0.0
0.0 2.0 0.0
0.199999999999856 0.0 0.0
0.3999999999996677 0.0 0.0
0.5999999999994683 0.0 0.0
0.7999999999993286 0.0 0.0
0.9999999999991888 0.0 0.0
1.199999999999033 0.0 0.0
1.399999999998576 0.0 0.0
1.599999999997992 0.0 0.0
1.799999999997408 0.0 0.0
1.999999999996825 0.0 0.0
2.199999999996241 0.0 0.0
2.399999999995657 0.0 0.0
2.599999999995073 0.0 0.0
2.79999999999449 0.0 0.0
2.999999999993906 0.0 0.0
3.199999999993322 0.0 0.0
3.399999999992738 0.0 0.0
3.599999999992154 0.0 0.0
3.799999999991571 0.0 0.0
3.999999999991022 0.0 0.0
4.199999999991187 0.0 0.0
4.399999999991491 0.0 0.0
4.599999999991795 0.0 0.0
4.799999999992099 0.0 0.0
4.999999999992403 0.0 0.0
5.199999999992706 0.0 0.0
5.39999999999301 0.0 0.0
5.599999999993313 0.0 0.0
5.799999999993618 0.0 0.0
5.999999999993922 0.0 0.0
6.199999999994227 0.0 0.0
6.39999999999453 0.0 0.0
6.599999999994833 0.0 0.0
6.799999999995138 0.0 0.0
6.999999999995442 0.0 0.0
7.199999999995747 0.0 0.0
7.39999999999605 0.0 0.0
7.599999999996353 0.0 0.0
7.799999999996658 0.0 0.0
7.999999999996962 0.0 0.0
8.199999999997265 0.0 0.0
8.399999999997569 0.0 0.0
8.599999999997873 0.0 0.0
8.799999999998176 0.0 0.0
8.99999999999848 0.0 0.0
9.199999999998786 0.0 0.0
9.399999999999089 0.0 0.0
9.599999999999392 0.0 0.0
9.799999999999697 0.0 0.0
10.0 0.1999999999996293 0.0
10.0 0.3999999999991157 0.0
10.0 0.5999999999985328 0.0
10.0 0.7999999999979498 0.0
10.0 0.9999999999973885 0.0
10.0 1.199999999997894 0.0
10.0 1.39999999999842 0.0
10.0 1.599999999998947 0.0
10.0 1.799999999999474 0.0
9.799999999999999 2.0 0.0
9.6 2.0 0.0
9.399999999999999 2.0 0.0
9.2 2.0 0.0
8.999999999999998 2.0 0.0
8.799999999999999 2.0 0.0
8.599999999999998 2.0 0.0
8.399999999999999 2.0 0.0
8.2 2.0 0.0
7.999999999999998 2.0 0.0
7.799999999999999 2.0 0.0
7.599999999999999 2.0 0.0
7.399999999999999 2.0 0.0
7.199999999999999 2.0 0.0
7.0 2.0 0.0
6.799999999999999 2.0 0.0
6.6 2.0 0.0
6.399999999999999 2.0 0.0
6.199999999999999 2.0 0.0
5.999999999999999 2.0 0.0
5.8 2.0 0.0
5.6 2.0 0.0
5.399999999999999 2.0 0.0
5.199999999999999 2.0 0.0
4.8 2.0 0.0
4.6 2.0 0.0
4.399999999999999 2.0 0.0
4.199999999999998 2.0 0.0
3.999999999999999 2.0 0.0
3.799999999999999 2.0 0.0
3.599999999999999 2.0 0.0
3.399999999999999 2.0 0.0
3.199999999999998 2.0 0.0
2.999999999999999 2.0 0.0
2.799999999999999 2.0 0.0
2.599999999999999 2.0 0.0
2.399999999999999 2.0 0.0
2.199999999999999 2.0 0.0
2.0 2.0 0.0
1.799999999999999 2.0 0.0
1.599999999999999 2.0 0.0
1.399999999999999 2.0 0.0
1.199999999999999 2.0 0.0
0.9999999999999991 2.0 0.0
0.7999999999999998 2.0 0.0
0.5999999999999996 2.0 0.0
0.3999999999999995 2.0 0.0
0.1999999999999993 2.0 0.0
0.0 1.799999999999167 0.0
0.0 1.6 0.0
0.0 1.400000000001387 0.0
0.0 1.200000000002774 0.0
0.0 1.000000000004117 0.0
0.0 0.8000000000033287 0.0
0.0 0.6000000000024965 0.0
0.0 0.4000000000016644 0.0
0.0 0.200000000000832 0.0
1.499207686858938 0.9671416246672391 0.0
2.690335006295381 0.9619521672166851 0.0
3.892537609238439 1.007271393615351 0.0
8.916602958236062 0.9848120741100651 0.0
7.714518201951718 1.024234589865042 0.0
6.514518201951581 1.024234589865268 0.0
5.299999999999998 1.000000000000349 0.0
0.7620577975594133 1.201991596673393 0.0
4.61755859746166 1.240410629378135 0.0
2.099999999996533 0.6749999999988996 0.0
3.289480163184942 0.6802242156869155 0.0
8.299999999999976 1.325000000000064 0.0
7.110519836808121 1.319775784312006 0.0
5.893184537067197 1.292851873188582 0.0
3.268568008578649 1.341967835735878 0.0
2.118368267083699 1.321829331075689 0.0
5.930896443153832 0.6493414313150682 0.0
7.106926174231782 0.6329785805444448 0.0
8.306926174233002 0.6329785805444098 0.0
4.427960725065653 0.6389803625370323 0.0
0.9828791719046732 0.6520555711814596 0.0
9.383333333333349 0.6166666666667164 0.0
9.383333333333326 1.383333333333367 0.0
4.974443803660211 0.5526668589022862 0.0
1.248084267804327 1.464555585366204 0.0
4.139486343919472 1.468449088519687 0.0
5.077806736162063 1.478342020848787 0.0
1.629462398503482 0.5098631373669138 0.0
2.579462070540726 0.5133714280880515 0.0
3.770778974032556 0.5099482598296803 0.0
8.764748922637567 1.526880805960684 0.0
7.820537929455645 1.486628571911716 0.0
6.632254923791462 1.492045881343967 0.0
2.796478414430566 1.477149214423874 0.0
6.403521585563812 0.5228507855762514 0.0
7.603521585564883 0.5228507855756581 0.0
8.783559188644787 0.5066440811355862 0.0
0.5060338924245764 0.5082251307884346 0.0
5.451633334958382 0.4799315318847731 0.0
1.683269995544083 1.547372422998862 0.0
0.448590368789599 1.551409631210402 0.0
5.545526974704655 1.582008455135239 0.0
3.666056976948354 1.56999765613834 0.0
0.4385739326402744 0.9352922270094057 0.0
9.58170539854767 0.9922137522194456 0.0
4.93200119575972 0.9247090920592975 0.0
6.20679636316332 1.642443126922768 0.0
7.418963044745086 1.587405313446662 0.0
2.98103695524982 0.412594686552066 0.0
2.420975602092416 1.592770352831584 0.0
7.97902439790374 0.4072296471687943 0.0
6.779024397902082 0.4072296471687297 0.0
1.130444757308209 0.9859238872709168 0.0
0.8901814758011342 1.60566856081121 0.0
4.263670373274499 0.9915754392410991 0.0
3.096698167273431 1.009056907826855 0.0
6.088506433998166 0.9857489435828969 0.0
1.902225037409936 1.003483800311746 0.0
7.288506433998439 0.9857489435828686 0.0
8.498964973312972 1.005823551167602 0.0
2.307571737417198 1.008136792450924 0.0
8.100397971125554 1.000138280273345 0.0
6.900397971125225 1.000138280273792 0.0
3.499307350770321 0.9996496628144824 0.0
5.703656022566558 0.9885479657552226 0.0
4.719420624357892 1.622286409566126 0.0
4.099803549896894 0.3600308081356619 0.0
1.286100671532495 0.3637431910670685 0.0
9.120549139677793 1.655065205594329 0.0
9.11726214008418 0.3400668903113251 0.0
4.642568097328033 0.3514924793220939 0.0
9.630437629189052 0.3309104953729904 0.0
9.674493769554315 1.668196579944218 0.0
1.936458797611609 0.3337070483410596 0.0
3.461817573918652 0.3447876019040473 0.0
8.440152788772068 1.649667667046397 0.0
6.973083089482548 1.643748677366674 0.0
3.126874515006838 1.659115470008545 0.0
6.070607878384977 0.3410183041038941 0.0
7.255014454789089 0.32792256737713 0.0
8.462493615948901 0.3368393217476116 0.0
9.236261261261264 0.9276047786917867 0.0
5.885444386845415 1.667751020273455 0.0
0.8062340689595878 0.3261579034781319 0.0
2.29463843780282 0.308358158429197 0.0
8.10536156219338 1.691641841570632 0.0
4.041916759198581 0.7211683801597477 0.0
1.324377365289917 0.710525897087282 0.0
9.023167917315867 1.292262965009952 0.0
2.044244009166302 1.693807225416931 0.0
0.7675765545556328 0.8969765944392112 0.0
2.86965991063896 0.7069213925303978 0.0
6.330340089355722 1.293078607468788 0.0
7.530340089355831 1.29307860746885 0.0
2.509347777214458 1.27231292939881 0.0
7.890652222779963 0.7276870706009825 0.0
6.690652222780154 0.7276870706013264 0.0
4.380959112578968 1.65866292149053 0.0
0.3278422400819535 1.233362752678148 0.0
5.754468991464942 0.3469215055361071 0.0
9.69195804401614 0.7000195364707393 0.0
9.691250997975434 1.303243780084337 0.0
5.54324561063747 1.237401556904767 0.0
9.044596057577811 0.6843248705785732 0.0
5.208929198448351 0.3519433027337513 0.0
3.708880196230617 1.249762029554333 0.0
1.713349558540635 1.234899745098077 0.0
4.586522821995393 0.9261740906803194 0.0
5.241145838821565 0.7007005766013242 0.0
1.434457446926135 1.701926055218157 0.0
0.2821921707428039 0.3393165318407161 0.0
3.42846431357046 1.714274134409306 0.0
5.26283485467567 1.710141275531951 0.0
3.966530105129177 1.718376080180638 0.0
4.891301048299285 1.259923533724591 0.0
0.2787500712946937 0.6906723798523376 0.0
1.822166578929051 0.7301892210727335 0.0
8.593276160688786 1.287322908694633 0.0
2.386017956680413 0.7288816957021155 0.0
3.576911792171353 0.7225526638483954 0.0
8.013982043315597 1.271118304297217 0.0
6.82303669320588 1.277631295759485 0.0
2.891837633696712 1.215141906356511 0.0
8.708162366297856 0.7848580936429009 0.0
7.496736072543097 0.7897651325976158 0.0
6.296736072542775 0.7897651325982009 0.0
5.523181420933933 0.7588744249744506 0.0
4.725538117155759 0.6529070682798582 0.0
2.736307197014292 0.273961667653487 0.0
7.663692802980817 1.726038332346062 0.0
6.446842959287713 1.783714797320288 0.0
1.126188383272983 1.743715177525389 0.0
2.64757240694847 1.787239829472812 0.0
6.546646507559373 0.2589894635657943 0.0
7.746646507561152 0.2589894635657218 0.0
4.079302268890254 1.221431431691139 0.0
4.433746883463333 0.2983726043497702 0.0
1.032697650548726 1.318076986199429 0.0
1.309492735411376 1.208980965369829 0.0
3.896105387998365 0.2579746081881307 0.0
9.378751775005455 1.725996478164223 0.0
9.3965279828929 0.2649862374471925 0.0
1.515757555362918 0.2603060454608533 0.0
4.959097093232828 1.726144293543605 0.0
4.912501341257775 0.2529154558175828 0.0
4.342421824442713 1.285376618065631 0.0
7.023506283123107 0.293611963231815 0.0
8.215829626877609 0.2682061590942965 0.0
5.28145265730745 1.291130016052329 0.0
8.693992162747364 1.744100892812201 0.0
0.6256567126095668 1.775064851453201 0.0
0.2724967459749605 1.756941612685287 0.0
8.90781713264278 0.2741674349222226 0.0
7.184202236567151 1.709454269177068 0.0
3.212962614055919 0.2641656831057426 0.0
0.6761590188374282 0.6746441670621973 0.0
1.020489328989316 0.2487299689497893 0.0
1.485017749467193 1.402133856149482 0.0
6.734223224917944 1.790518105434539 0.0
2.657549589911705 0.7636227781082678 0.0
6.542590471647475 1.237213715285722 0.0
7.742745187066703 1.235538225115726 0.0
0.5794341726414672 0.2480285055479751 0.0
1.842901067642841 1.760146518280044 0.0
3.84389577648662 0.7524680119172447 0.0
3.061589173628368 1.407936939342627 0.0
6.144447294584154 0.5911674363009913 0.0
7.344447294585433 0.5911674362995804 0.0
8.544447294586682 0.5911674362982269 0.0
5.491507940982565 0.1734458797927824 0.0
[...]
<PointData Vectors="fields">
<DataArray type="Float64" Name="U" NumberOfComponents="3" format="ascii">
0.0 0.0 0.0
0.02774459646963078 0.0 0.0
0.0022607963442517003 -0.005140493641135476 0.0
0.013771137696339137 -0.04432354722776898 0.0
0.025136934837023447 -0.004787623754946278 0.0
0.00028378136371212735 -0.005251979740848648 0.0
0.0008557614532828849 -0.008634735581473763 0.0
0.0013729942813668003 -0.011624874279118416 0.0
0.001809250687281322 -0.014252477895370683 0.0
0.002192369107344358 -0.016758311224110336 0.0
0.002561427377564471 -0.01916436599539225 0.0
0.0029311747383263206 -0.021479318202084933 0.0
0.0033348290015393282 -0.023715797408427827 0.0
0.003749413552377519 -0.025875103658891795 0.0
0.004194283528133751 -0.02793483394325392 0.0
0.004658891785321487 -0.02989524170591496 0.0
0.005163231521807077 -0.03175799798807432 0.0
0.0056750897795798715 -0.0335087410111278 0.0
0.00623816447194727 -0.03514773880411944 0.0
0.006799681749948779 -0.03666858144847748 0.0
0.007407780806845424 -0.03806502373053661 0.0
0.008019995215974943 -0.03932564981586332 0.0
0.008666657622971384 -0.040458703760229725 0.0
0.009321914011831385 -0.04142782159588801 0.0
0.009987099261933636 -0.042299781420798516 0.0
0.010683857936802023 -0.04300752205548435 0.0
0.011377793305499408 -0.043561752533310745 0.0
0.012098023227698823 -0.04397142617950071 0.0
0.012812892548071497 -0.04421949572160226 0.0
0.013562385862128252 -0.044320046840306056 0.0
0.01429517101325271 -0.044265419024503344 0.0
0.01502865832636067 -0.04405225924574461 0.0
0.01575661750462049 -0.04368786695469488 0.0
0.016471421818488662 -0.04316755638580176 0.0
0.01716302989217848 -0.042503548421344 0.0
0.01786660525806827 -0.04170137301067503 0.0
0.01853266567696195 -0.04071559772241719 0.0
0.019201707987379094 -0.03963509018603544 0.0
0.019842954329031024 -0.03841203903609903 0.0
0.020485465820761 -0.03703321108008729 0.0
0.021092648210852917 -0.035528073750255136 0.0
0.02167732065298912 -0.03390371143351461 0.0
0.022217840894184333 -0.03213296210407589 0.0
0.022744183646639715 -0.030290985850321004 0.0
0.02322737303761357 -0.028336572313713206 0.0
0.023689540841728245 -0.026273252898140566 0.0
0.02411278759353222 -0.02410966443369848 0.0
0.024517172577371522 -0.021868809921498054 0.0
0.024886419196185103 -0.019542307376580297 0.0
0.025263673620244936 -0.017126268131101824 0.0
0.025633946713362932 -0.014622899272896199 0.0
0.026045945487859833 -0.011978517570993951 0.0
0.026503729352941596 -0.00910870417366227 0.0
0.027210909890035842 -0.005689411332460622 0.0
0.023425987686615718 -0.0020258361239310235 0.0
0.020636323688761775 -0.003141165213254301 0.0
0.018105900988481326 -0.0038490139661401415 0.0
0.015782786433538976 -0.004382307213608718 0.0
0.013529301397426448 -0.0047173066729988555 0.0
0.011317168344993663 -0.004935934677708378 0.0
0.00910755387697547 -0.005068415938597153 0.0
0.0068649609938744825 -0.005128005956529773 0.0
0.004581741939444138 -0.0051403446799682005 0.0
0.0022590710312236527 -0.007470179994324715 0.0
0.002265774165663526 -0.009830664291906243 0.0
0.002310583866638604 -0.0122285025263629 0.0
0.002413555347601917 -0.014651550750264853 0.0
0.0025831689365799454 -0.01706476356044275 0.0
0.0028118708513026657 -0.01943614059792887 0.0
0.003102508923097365 -0.021775389907288112 0.0
0.003441175355830408 -0.024031426698581673 0.0
0.0038292437646037765 -0.026203834450294835 0.0
0.004271522185379163 -0.028289406763560048 0.0
0.004734587518788051 -0.03026633463313498 0.0
0.005256305218594251 -0.032138406024176315 0.0
0.005784752323089239 -0.033893784951509145 0.0
0.006363481296787028 -0.03552606404195994 0.0
0.0069587063017172756 -0.03703575139577139 0.0
0.007576836107353702 -0.03841169322015547 0.0
0.008198944015630802 -0.039620475462741195 0.0
0.008854727543840448 -0.040748994841118165 0.0
0.009525098308128428 -0.041698656732720815 0.0
0.010191806680307416 -0.04250901820672327 0.0
0.010889425144287299 -0.043180362171205994 0.0
0.011610951476203724 -0.04369429967650249 0.0
0.012310068055617601 -0.04405614481919276 0.0
0.013044369041740523 -0.044268412078573814 0.0
0.014517006224273439 -0.04421199978006923 0.0
0.015231646525928086 -0.04396163077269185 0.0
0.01594028580484795 -0.04356073139032747 0.0
0.016662519173815237 -0.04301646002185714 0.0
0.01737177791147627 -0.04230250377919867 0.0
0.018070458625135736 -0.04144576336389814 0.0
0.01871653188999322 -0.04045473465412417 0.0
0.0193622741584255 -0.039322983776785114 0.0
0.019981084727050496 -0.03806350994693986 0.0
0.020586699623785627 -0.036669416807927215 0.0
0.021149477532541563 -0.03512129109830157 0.0
0.021705544802963786 -0.033501426268695234 0.0
0.022221065070260556 -0.03173721058057752 0.0
0.02270578297459659 -0.029863194170273895 0.0
0.023175050073812202 -0.027883967146304707 0.0
0.023601469082799635 -0.02580434162538503 0.0
0.023976432371091216 -0.023638979382230002 0.0
0.02432257868960707 -0.02138242991795049 0.0
0.02460458981492295 -0.019060056740813902 0.0
0.024831201307877592 -0.016679311853385927 0.0
0.024989043194586755 -0.014275343748101658 0.0
0.025083480047152523 -0.01185921210426458 0.0
0.025129765103039502 -0.009468996962326571 0.0
0.025140561638937468 -0.007110016344809356 0.0
0.022820269059306935 -0.004788890510557111 0.0
0.020540223978865714 -0.0047774221366882344 0.0
0.01830468842055889 -0.004723043443284975 0.0
0.016094531704653275 -0.0045970811149062055 0.0
0.013892858330900348 -0.0043637979251459225 0.0
0.01164879603190437 -0.004032518500586293 0.0
0.009332912940028493 -0.0035038404308281672 0.0
0.006828864163450834 -0.002775176806179309 0.0
0.0038537010187101968 -0.0015650776211820227 0.0
0.013395669951057914 -0.02271133210959643 0.0
0.01339867143158173 -0.034505165302243915 0.0
0.013704477971862193 -0.04216786427234365 0.0
0.01378783802758223 -0.01819110752096518 0.0
0.013528966414974357 -0.03132297395488182 0.0
0.013586169031985916 -0.04043114946345626 0.0
0.013678562469241498 -0.04450935372065783 0.0
0.01606674478071832 -0.013829658712638058 0.0
0.014028676496386836 -0.04430633898870954 0.0
0.010762542409839745 -0.029105720748524282 0.0
0.011808217283510562 -0.038895735500048184 0.0
0.010534028022346046 -0.02530021464497359 0.0
0.011519363027655905 -0.036456982955461154 0.0
0.012802585687160258 -0.043178803208595136 0.0
0.015716427196430956 -0.038760443011050354 0.0
0.01656933501374963 -0.029261508765822966 0.0
0.01479980960408538 -0.043038860771371694 0.0
0.016256160831439593 -0.036488640693899635 0.0
0.017348264546289797 -0.0252778620254626 0.0
0.012904107368069552 -0.043914849166128964 0.0
0.009983936484121471 -0.016601475413528 0.0
0.01787045570735487 -0.012258538369483662 0.0
0.009335582539012418 -0.012417365388522339 0.0
0.01357898433910918 -0.044578273696270515 0.0
0.018634806335445286 -0.019725778359123262 0.0
0.01515517325798801 -0.04305596847531355 0.0
0.0135832605203507 -0.0445675244069346 0.0
0.008786679487475068 -0.024164100029384114 0.0
0.009846374145816959 -0.033515663649168956 0.0
0.011535895804660492 -0.04153860583750017 0.0
0.008113180326439949 -0.01995265230121641 0.0
0.00944163925711686 -0.03023793635316077 0.0
0.01101198583749007 -0.03967352188471926 0.0
0.017169690222974293 -0.035306445461055214 0.0
0.015966124392383853 -0.04095128385539743 0.0
0.017691536575902066 -0.03230414283038564 0.0
0.019004612935145875 -0.019827181339831707 0.0
0.008257915375697053 -0.010357616233718576 0.0
0.014465836335806295 -0.04421648106773616 0.0
0.019113902159775643 -0.024672861065207267 0.0
0.01997030591972942 -0.010026113653584396 0.0
0.01260593695774545 -0.04402652541670747 0.0
0.016386410616304463 -0.041000877455574035 0.0
0.013223318666150462 -0.009654210168233004 0.0
0.013568162569092667 -0.00979285050471878 0.0
0.013649055547307522 -0.04464651980013156 0.0
0.011049540173167212 -0.041848570520058144 0.0
0.009140669587764397 -0.033894688535200564 0.0
0.00969079473724713 -0.03670156269502403 0.0
0.018609814983014596 -0.032082235156545034 0.0
0.01922173390005432 -0.028679352022806477 0.0
0.017242746704273157 -0.0387299210158272 0.0
0.01364027389194504 -0.018380983413179633 0.0
0.02039847455411532 -0.01540237097304454 0.0
0.013654249088410918 -0.04352354547315042 0.0
0.013743930380074224 -0.03762474505260033 0.0
0.013750668241450416 -0.04248042347814702 0.0
0.013732819053602281 -0.02710171515119652 0.0
0.013836643356651704 -0.03508054186549254 0.0
0.013636463314251475 -0.023123219808813607 0.0
0.013758018761012663 -0.03112112178274752 0.0
0.01372476238627772 -0.027478522440236446 0.0
0.013717889735487099 -0.03801654346875483 0.0
0.013678831866953862 -0.040200813314662645 0.0
0.013707997991523254 -0.043765580891340874 0.0
0.014361889230392298 -0.04435136486461398 0.0
0.011572935340630216 -0.04286501600974456 0.0
0.0068891431655713625 -0.02026450146904974 0.0
0.006454348935871084 -0.01565120687452416 0.0
0.021188393485217002 -0.015736707881595414 0.0
0.012765668293511535 -0.044234033762270246 0.0
0.02145528309784997 -0.008704368269829942 0.0
0.006103830561569615 -0.008931517346244746 0.0
0.007376240616735121 -0.02740535404352591 0.0
0.010155704669508044 -0.039869264100102955 0.0
0.007129358585261439 -0.02368214172009759 0.0
0.009494220334868584 -0.03739280410628533 0.0
0.017909838637275056 -0.03772307113700234 0.0
0.016108600812238288 -0.042420879521271694 0.0
0.01869779636985956 -0.035244418425771834 0.0
0.02056373087681651 -0.02352231834952703 0.0
0.014342727934809629 -0.014205236192436022 0.0
0.011662096557234294 -0.04309317012961806 0.0
0.006029770117032101 -0.014393492675861725 0.0
0.007698911609929196 -0.030910269116195932 0.0
0.007146623666593267 -0.027309671315758566 0.0
0.012712361242689048 -0.04275434489530079 0.0
0.010707510581185378 -0.020716940407630724 0.0
0.010461960465797067 -0.016865426132618287 0.0
0.020091491908282525 -0.02844633146617469 0.0
0.012745307723255942 -0.013878705842049845 0.0
0.011614660056211855 -0.035932440146317864 0.0
0.012390797655022706 -0.041379444324152206 0.0
0.011375698964821445 -0.03299455986404136 0.0
0.015869201297558883 -0.03293096445239029 0.0
0.016176096583612805 -0.029612806446331796 0.0
0.015249694551743773 -0.03937306933249654 0.0
0.01520218751954492 -0.043710886449329245 0.0
0.016491802993065723 -0.008447641876238421 0.0
0.015370883460473838 -0.0434867791558554 0.0
0.01684560839243161 -0.008108683609875522 0.0
0.01015912607341393 -0.008619207726386163 0.0
0.01324937187297836 -0.04411777567550925 0.0
0.017086827627344835 -0.016634065147493424 0.0
0.014089204704855708 -0.044458835279759634 0.0
0.014820371121141429 -0.041300800686395224 0.0
0.016002802588856193 -0.025062219647879254 0.0
0.013561885965732094 -0.04427013267232557 0.0
0.013900123259674754 -0.04454524935409764 0.0
0.020988284812746543 -0.021855800028917304 0.0
0.0061043712207663635 -0.006957307503449333 0.0
0.017624360787865754 -0.03963573073722799 0.0
0.013074303687338215 -0.044388498778213596 0.0
0.016379485156390178 -0.04233535117151421 0.0
0.013801830234998962 -0.044589275541427276 0.0
0.010475809684894682 -0.007348970951612732 0.0
0.011111808894588827 -0.026259015387518063 0.0
0.010733275864056183 -0.021998156294634405 0.0
0.011435034948083494 -0.031834959326991756 0.0
0.012305773392724425 -0.04060666678862592 0.0
0.011239114424839634 -0.028343186346566566 0.0
0.012046403888866516 -0.038514526192122214 0.0
0.015191585789146977 -0.036098719127722764 0.0
0.015938675023435014 -0.02071344761067541 0.0
0.015408666382379952 -0.0332981641101888 0.0
0.014622468074070602 -0.04153814846758438 0.0
0.014103077852127686 -0.044156628157986794 0.0
0.013291989079199668 -0.04443639507639748 0.0
0.008222006991815212 -0.03475870401397385 0.0
0.007555381001838731 -0.03166614704256712 0.0
0.009829910828844796 -0.04060787635658904 0.0
0.021762834213707713 -0.018236531033276455 0.0
0.019823030462149636 -0.03398961523828196 0.0
0.017600109146261346 -0.040082131989484585 0.0
0.020224725703961107 -0.030905549102832015 0.0
0.014415702014870179 -0.04289460155265381 0.0
0.012167037569305312 -0.04380757701979299 0.0
0.017205072157191307 -0.017160098969045898 0.0
0.015928446977739156 -0.020485161929834347 0.0
0.010713528512057964 -0.04201777017691637 0.0
0.0055167672344567705 -0.012496831712453398 0.0
0.022348820701903395 -0.012073553860746673 0.0
0.006021975338850696 -0.022872967791420094 0.0
0.01384979210841247 -0.04447879259549232 0.0
0.013348944622327961 -0.04444480502344206 0.0
0.014370467022372824 -0.04371405152123646 0.0
0.018472282574555066 -0.037004375428756946 0.0
0.020935691749986576 -0.026194308406148833 0.0
0.013414110705721637 -0.04449940796631974 0.0
0.0058340330538075936 -0.020745642391182702 0.0
0.022442562277468363 -0.01218196278078647 0.0
0.022317430762569312 -0.007952129501449821 0.0
0.021796282011420406 -0.018323533564404318 0.0
0.008614598571518917 -0.0357814201106671 0.0
0.009153523274368157 -0.03827783896948977 0.0
0.010243686962262822 -0.01268469315249663 0.0
0.005264784813001055 -0.017070287654099184 0.0
0.017814984570296174 -0.022483709029187206 0.0
0.009069336438750502 -0.03892754347788983 0.0
0.011875906026812915 -0.034220577913561354 0.0
0.012481625928183797 -0.040254802477976595 0.0
0.011710326070054941 -0.031033979215666384 0.0
0.004867822943952916 -0.011357322459409284 0.0
0.021050451248214183 -0.026338581554644316 0.0
0.012657091812976869 -0.04192912851566223 0.0
0.016352744148236963 -0.037326642613934854 0.0
0.015279798398439515 -0.042188468226383155 0.0
0.016822485856224256 -0.034574918139684455 0.0
0.01792705546273623 -0.02261583672503909 0.0
0.015055397389957231 -0.04401282443107858 0.0
0.011468789880314882 -0.023441043311965462 0.0
0.019044363680729478 -0.036285221222576526 0.0
0.019850184731791138 -0.03356568803177621 0.0
0.016982626114526785 -0.04158081534772145 0.0
0.018938689352256274 -0.012830706937778186 0.0
0.011505087043479363 -0.01238619041736463 0.0
0.011936896289402213 -0.043613944574172156 0.0
0.015322385803702338 -0.04203528625730757 0.0
0.0072037959277284555 -0.03281100388151276 0.0
0.006506566774074783 -0.02945448772628029 0.0
0.014851598380757815 -0.0435993597056137 0.0
0.011200324811765116 -0.019846021501069854 0.0
0.018506275512006388 -0.027601465760899405 0.0
0.015635881723046613 -0.01113565605632199 0.0
0.016021519059599705 -0.043104147738956405 0.0
0.019329252765413675 -0.0065903867212049865 0.0
0.010007350842481959 -0.04089200566686419 0.0
0.005976661482002498 -0.025398818650334505 0.0
0.014556810753389368 -0.044100598705312126 0.0
0.010770404922255915 -0.04235204826429732 0.0
0.015711884985261517 -0.040310453683524525 0.0
0.020646084743257288 -0.030733782212711606 0.0
0.013664542733514804 -0.04464460344447303 0.0
0.014158377149771386 -0.007334396983249423 0.0
0.012765225560345535 -0.04379135909562318 0.0
0.01341376358837644 -0.04317459004606073 0.0
0.012797997254495744 -0.025329570306370175 0.0
0.013059892942559829 -0.03647023811234928 0.0
0.012850295591150373 -0.029114843713796676 0.0
0.013110267983761933 -0.038893537375106445 0.0
0.005140111346655048 -0.01777863986336344 0.0
0.014558756049212206 -0.007111132498803751 0.0
0.017257474990415567 -0.041266317457094595 0.0
0.01367008094822501 -0.044639872362430146 0.0
0.013290732659300811 -0.04448812952832026 0.0
0.010833011911599699 -0.009725598576234618 0.0
0.022371885850260984 -0.020764778585607754 0.0
0.017423425174584672 -0.02766936771192198 0.0
0.017365862519325245 -0.031027133787335154 0.0
0.016160293610698005 -0.03810418501738969 0.0
0.010808588835914614 -0.03483417097258659 0.0
0.011159343173184413 -0.03751710529971917 0.0
0.012265253991530195 -0.0424153048112866 0.0
0.006250584450999326 -0.02913148739895026 0.0
0.005656314790403433 -0.025341106874564038 0.0
0.011446884392799766 -0.040837682718264566 0.0
0.009853510929804653 -0.03215253862784419 0.0
0.010259744013412484 -0.035195433601047446 0.0
0.01580081009933634 -0.02719661637943468 0.0
0.015395611629673248 -0.011673721617220382 0.0
0.008120466499264819 -0.007363963482658059 0.0
0.018992943689788697 -0.0063359584008746 0.0
0.014372156750858215 -0.0388652986968307 0.0
0.014737464978351602 -0.02927531496385899 0.0
0.014076855631533713 -0.043099273038042916 0.0
0.014564006596883004 -0.036420709168278546 0.0
0.014902955403638524 -0.02514603541275936 0.0
0.0212436770856403 -0.024188112013676093 0.0
0.008270407499830637 -0.005616501464491485 0.0
0.017386290361758705 -0.03377900750382552 0.0
0.01623892758561319 -0.0399358770403061 0.0
0.017892181013991666 -0.030570464857035188 0.0
0.012890808121311322 -0.03287333074640344 0.0
0.013213552835423338 -0.0393412568183455 0.0
0.012850128837239422 -0.029486474644975672 0.0
0.015010097868156762 -0.044022658618549614 0.0
0.013233083501722618 -0.04130321740336647 0.0
0.009672079454905731 -0.030685944586715336 0.0
0.009321713216058247 -0.027051760668173764 0.0
0.016153743393763607 -0.04296955402548368 0.0
0.014090737018096182 -0.04444170161476944 0.0
0.01151661928340011 -0.018567370940108907 0.0
0.012805556794869256 -0.020484765613440932 0.0
0.012619107463966672 -0.01598525565729637 0.0
0.012040894842624855 -0.042652574930529104 0.0
0.012863137686349212 -0.025007504117096818 0.0
0.007262748026976639 -0.03312870662064714 0.0
0.008030045290984208 -0.0360263747282196 0.0
0.013752050756354906 -0.04446826320872193 0.0
0.020813203423047055 -0.02910864485487897 0.0
0.01819962843252431 -0.03896508283284753 0.0
0.010561256713137544 -0.03870329082296949 0.0
0.010092201485879528 -0.03619794110140575 0.0
0.008811279661264292 -0.021164651418567902 0.0
0.02317024921812743 -0.00580155978104795 0.0
0.004707903945400055 -0.0075914305483082214 0.0
0.014488931638475956 -0.01569419190945187 0.0
0.014256465301768568 -0.04375028400134237 0.0
0.013404133634775321 -0.042949851788178915 0.0
0.013094625556125703 -0.04345771399461997 0.0
0.01211678531276058 -0.007326308359899458 0.0
0.012358905646709537 -0.04404945133026883 0.0
0.02256552332568978 -0.015744984129279226 0.0
0.013057177634217666 -0.020656336540656024 0.0
0.018052271555009967 -0.010754631923190094 0.0
0.01243382141474922 -0.043281809568099454 0.0
0.013231018946190824 -0.03614811963317131 0.0
0.013395933563513821 -0.0415970234130339 0.0
0.013179280455171881 -0.03337802915093454 0.0
0.008916465830519825 -0.018893851792312153 0.0
0.009087026426200327 -0.026290080232995627 0.0
0.008780695983845552 -0.022194691358861564 0.0
0.011311831037190362 -0.04058489465839095 0.0
0.010811092609283441 -0.03845296990125341 0.0
0.013910001517907276 -0.04403593184773448 0.0
0.010888333967267419 -0.0427491286838093 0.0
0.018946921683559315 -0.01766841550552356 0.0
0.019234321425332983 -0.025288075161454315 0.0
0.017541630358703614 -0.036458303774016286 0.0
0.013271952656786077 -0.043761323016694186 0.0
0.015353172064256758 -0.04309615160023641 0.0
0.00458937552987363 -0.020692018984926563 0.0
0.008369105983882404 -0.017352561546975252 0.0
0.008787521612148226 -0.014926448753992464 0.0
0.015968455320486408 -0.02278119493888373 0.0
0.01511422483335516 -0.03740114474524488 0.0
0.015427175622468682 -0.0347749580235384 0.0
0.01455183419354487 -0.04230139350970628 0.0
0.016948262928347998 -0.039026949143292786 0.0
0.012440535813426794 -0.03755309989637619 0.0
0.013005194235943244 -0.042429280137682046 0.0
0.012297213718228601 -0.03491732619143085 0.0
0.022448267038600145 -0.010000586609987632 0.0
0.013615145534794332 -0.04423396964602368 0.0
0.01593693625692168 -0.034639269689395354 0.0
0.016168554558669827 -0.03182826108848802 0.0
0.01512499117702468 -0.04070661706185464 0.0
0.01473395649644114 -0.04009384925591471 0.0
0.01007344839653678 -0.041404952477479086 0.0
0.01390436153368587 -0.04454680363677834 0.0
0.015016841460005132 -0.03785978024774124 0.0
0.015663715891206572 -0.027264728002450105 0.0
0.015607882181736919 -0.018401261408695368 0.0
0.018352754870342092 -0.03854560356392903 0.0
0.008509626350959447 -0.010151858929301313 0.0
0.018631474581741022 -0.00961875195614507 0.0
0.02025668477236506 -0.032597980812366874 0.0
0.007603296710437347 -0.016662800940555677 0.0
0.012588804207784528 -0.043983498880064746 0.0
0.01886184164915541 -0.014607065190690533 0.0