<VTKFile type="UnstructuredGrid"  version="0.1">
<UnstructuredGrid>
<Piece NumberOfPoints="713" NumberOfCells="1304">
<Points>
<DataArray type="Float64" NumberOfComponents="3" format="ascii">
0.0 0.0 0.0
10.0 0.0 0.0
10.0 2.0 0.0
5.0 2.0 0.0
0.0 2.0 0.0
0.199999999999856 0.0 0.0
0.3999999999996677 0.0 0.0
0.5999999999994683 0.0 0.0
0.7999999999993286 0.0 0.0
0.9999999999991888 0.0 0.0
1.199999999999033 0.0 0.0
1.399999999998576 0.0 0.0
1.599999999997992 0.0 0.0
1.799999999997408 0.0 0.0
1.999999999996825 0.0 0.0
2.199999999996241 0.0 0.0
2.399999999995657 0.0 0.0
2.599999999995073 0.0 0.0
2.79999999999449 0.0 0.0
2.999999999993906 0.0 0.0
3.199999999993322 0.0 0.0
3.399999999992738 0.0 0.0
3.599999999992154 0.0 0.0
3.799999999991571 0.0 0.0
3.999999999991022 0.0 0.0
4.199999999991187 0.0 0.0
4.399999999991491 0.0 0.0
4.599999999991795 0.0 0.0
4.799999999992099 0.0 0.0
4.999999999992403 0.0 0.0
5.199999999992706 0.0 0.0
5.39999999999301 0.0 0.0
5.599999999993313 0.0 0.0
5.799999999993618 0.0 0.0
5.999999999993922 0.0 0.0
6.199999999994227 0.0 0.0
6.39999999999453 0.0 0.0
6.599999999994833 0.0 0.0
6.799999999995138 0.0 0.0
6.999999999995442 0.0 0.0
7.199999999995747 0.0 0.0
7.39999999999605 0.0 0.0
7.599999999996353 0.0 0.0
7.799999999996658 0.0 0.0
7.999999999996962 0.0 0.0
8.199999999997265 0.0 0.0
8.399999999997569 0.0 0.0
8.599999999997873 0.0 0.0
8.799999999998176 0.0 0.0
8.99999999999848 0.0 0.0
9.199999999998786 0.0 0.0
9.399999999999089 0.0 0.0
9.599999999999392 0.0 0.0
9.799999999999697 0.0 0.0
10.0 0.1999999999996293 0.0
10.0 0.3999999999991157 0.0
10.0 0.5999999999985328 0.0
10.0 0.7999999999979498 0.0
10.0 0.9999999999973885 0.0
10.0 1.199999999997894 0.0
10.0 1.39999999999842 0.0
10.0 1.599999999998947 0.0
10.0 1.799999999999474 0.0
9.799999999999999 2.0 0.0
9.6 2.0 0.0
9.399999999999999 2.0 0.0
9.2 2.0 0.0
8.999999999999998 2.0 0.0
8.799999999999999 2.0 0.0
8.599999999999998 2.0 0.0
8.399999999999999 2.0 0.0
8.2 2.0 0.0
7.999999999999998 2.0 0.0
7.799999999999999 2.0 0.0
7.599999999999999 2.0 0.0
7.399999999999999 2.0 0.0
7.199999999999999 2.0 0.0
7.0 2.0 0.0
6.799999999999999 2.0 0.0
6.6 2.0 0.0
6.399999999999999 2.0 0.0
6.199999999999999 2.0 0.0
5.999999999999999 2.0 0.0
5.8 2.0 0.0
5.6 2.0 0.0
5.399999999999999 2.0 0.0
5.199999999999999 2.0 0.0
4.8 2.0 0.0
4.6 2.0 0.0
4.399999999999999 2.0 0.0
4.199999999999998 2.0 0.0
3.999999999999999 2.0 0.0
3.799999999999999 2.0 0.0
3.599999999999999 2.0 0.0
3.399999999999999 2.0 0.0
3.199999999999998 2.0 0.0
2.999999999999999 2.0 0.0
2.799999999999999 2.0 0.0
2.599999999999999 2.0 0.0
2.399999999999999 2.0 0.0
2.199999999999999 2.0 0.0
2.0 2.0 0.0
1.799999999999999 2.0 0.0
1.599999999999999 2.0 0.0
1.399999999999999 2.0 0.0
1.199999999999999 2.0 0.0
0.9999999999999991 2.0 0.0
0.7999999999999998 2.0 0.0
0.5999999999999996 2.0 0.0
0.3999999999999995 2.0 0.0
0.1999999999999993 2.0 0.0
0.0 1.799999999999167 0.0
0.0 1.6 0.0
0.0 1.400000000001387 0.0
0.0 1.200000000002774 0.0
0.0 1.000000000004117 0.0
0.0 0.8000000000033287 0.0
0.0 0.6000000000024965 0.0
0.0 0.4000000000016644 0.0
0.0 0.200000000000832 0.0
1.499207686858938 0.9671416246672391 0.0
2.690335006295381 0.9619521672166851 0.0
3.892537609238439 1.007271393615351 0.0
8.916602958236062 0.9848120741100651 0.0
7.714518201951718 1.024234589865042 0.0
6.514518201951581 1.024234589865268 0.0
5.299999999999998 1.000000000000349 0.0
0.7620577975594133 1.201991596673393 0.0
4.61755859746166 1.240410629378135 0.0
2.099999999996533 0.6749999999988996 0.0
3.289480163184942 0.6802242156869155 0.0
8.299999999999976 1.325000000000064 0.0
7.110519836808121 1.319775784312006 0.0
5.893184537067197 1.292851873188582 0.0
3.268568008578649 1.341967835735878 0.0
2.118368267083699 1.321829331075689 0.0
5.930896443153832 0.6493414313150682 0.0
7.106926174231782 0.6329785805444448 0.0
8.306926174233002 0.6329785805444098 0.0
4.427960725065653 0.6389803625370323 0.0
0.9828791719046732 0.6520555711814596 0.0
9.383333333333349 0.6166666666667164 0.0
9.383333333333326 1.383333333333367 0.0
4.974443803660211 0.5526668589022862 0.0
1.248084267804327 1.464555585366204 0.0
4.139486343919472 1.468449088519687 0.0
5.077806736162063 1.478342020848787 0.0
1.629462398503482 0.5098631373669138 0.0
2.579462070540726 0.5133714280880515 0.0
3.770778974032556 0.5099482598296803 0.0
8.764748922637567 1.526880805960684 0.0
7.820537929455645 1.486628571911716 0.0
6.632254923791462 1.492045881343967 0.0
2.796478414430566 1.477149214423874 0.0
6.403521585563812 0.5228507855762514 0.0
7.603521585564883 0.5228507855756581 0.0
8.783559188644787 0.5066440811355862 0.0
0.5060338924245764 0.5082251307884346 0.0
5.451633334958382 0.4799315318847731 0.0
1.683269995544083 1.547372422998862 0.0
0.448590368789599 1.551409631210402 0.0
5.545526974704655 1.582008455135239 0.0
3.666056976948354 1.56999765613834 0.0
0.4385739326402744 0.9352922270094057 0.0
9.58170539854767 0.9922137522194456 0.0
4.93200119575972 0.9247090920592975 0.0
6.20679636316332 1.642443126922768 0.0
7.418963044745086 1.587405313446662 0.0
2.98103695524982 0.412594686552066 0.0
2.420975602092416 1.592770352831584 0.0
7.97902439790374 0.4072296471687943 0.0
6.779024397902082 0.4072296471687297 0.0
1.130444757308209 0.9859238872709168 0.0
0.8901814758011342 1.60566856081121 0.0
4.263670373274499 0.9915754392410991 0.0
3.096698167273431 1.009056907826855 0.0
6.088506433998166 0.9857489435828969 0.0
1.902225037409936 1.003483800311746 0.0
7.288506433998439 0.9857489435828686 0.0
8.498964973312972 1.005823551167602 0.0
2.307571737417198 1.008136792450924 0.0
8.100397971125554 1.000138280273345 0.0
6.900397971125225 1.000138280273792 0.0
3.499307350770321 0.9996496628144824 0.0
5.703656022566558 0.9885479657552226 0.0
4.719420624357892 1.622286409566126 0.0
4.099803549896894 0.3600308081356619 0.0
1.286100671532495 0.3637431910670685 0.0
9.120549139677793 1.655065205594329 0.0
9.11726214008418 0.3400668903113251 0.0
4.642568097328033 0.3514924793220939 0.0
9.630437629189052 0.3309104953729904 0.0
9.674493769554315 1.668196579944218 0.0
1.936458797611609 0.3337070483410596 0.0
3.461817573918652 0.3447876019040473 0.0
8.440152788772068 1.649667667046397 0.0
6.973083089482548 1.643748677366674 0.0
3.126874515006838 1.659115470008545 0.0
6.070607878384977 0.3410183041038941 0.0
7.255014454789089 0.32792256737713 0.0
8.462493615948901 0.3368393217476116 0.0
9.236261261261264 0.9276047786917867 0.0
5.885444386845415 1.667751020273455 0.0
0.8062340689595878 0.3261579034781319 0.0
2.29463843780282 0.308358158429197 0.0
8.10536156219338 1.691641841570632 0.0
4.041916759198581 0.7211683801597477 0.0
1.324377365289917 0.710525897087282 0.0
9.023167917315867 1.292262965009952 0.0
2.044244009166302 1.693807225416931 0.0
0.7675765545556328 0.8969765944392112 0.0
2.86965991063896 0.7069213925303978 0.0
6.330340089355722 1.293078607468788 0.0
7.530340089355831 1.29307860746885 0.0
2.509347777214458 1.27231292939881 0.0
7.890652222779963 0.7276870706009825 0.0
6.690652222780154 0.7276870706013264 0.0
4.380959112578968 1.65866292149053 0.0
0.3278422400819535 1.233362752678148 0.0
5.754468991464942 0.3469215055361071 0.0
9.69195804401614 0.7000195364707393 0.0
9.691250997975434 1.303243780084337 0.0
5.54324561063747 1.237401556904767 0.0
9.044596057577811 0.6843248705785732 0.0
5.208929198448351 0.3519433027337513 0.0
3.708880196230617 1.249762029554333 0.0
1.713349558540635 1.234899745098077 0.0
4.586522821995393 0.9261740906803194 0.0
5.241145838821565 0.7007005766013242 0.0
1.434457446926135 1.701926055218157 0.0
0.2821921707428039 0.3393165318407161 0.0
3.42846431357046 1.714274134409306 0.0
5.26283485467567 1.710141275531951 0.0
3.966530105129177 1.718376080180638 0.0
4.891301048299285 1.259923533724591 0.0
0.2787500712946937 0.6906723798523376 0.0
1.822166578929051 0.7301892210727335 0.0
8.593276160688786 1.287322908694633 0.0
2.386017956680413 0.7288816957021155 0.0
3.576911792171353 0.7225526638483954 0.0
8.013982043315597 1.271118304297217 0.0
6.82303669320588 1.277631295759485 0.0
2.891837633696712 1.215141906356511 0.0
8.708162366297856 0.7848580936429009 0.0
7.496736072543097 0.7897651325976158 0.0
6.296736072542775 0.7897651325982009 0.0
5.523181420933933 0.7588744249744506 0.0
4.725538117155759 0.6529070682798582 0.0
2.736307197014292 0.273961667653487 0.0
7.663692802980817 1.726038332346062 0.0
6.446842959287713 1.783714797320288 0.0
1.126188383272983 1.743715177525389 0.0
2.64757240694847 1.787239829472812 0.0
6.546646507559373 0.2589894635657943 0.0
7.746646507561152 0.2589894635657218 0.0
4.079302268890254 1.221431431691139 0.0
4.433746883463333 0.2983726043497702 0.0
1.032697650548726 1.318076986199429 0.0
1.309492735411376 1.208980965369829 0.0
3.896105387998365 0.2579746081881307 0.0
9.378751775005455 1.725996478164223 0.0
9.3965279828929 0.2649862374471925 0.0
1.515757555362918 0.2603060454608533 0.0
4.959097093232828 1.726144293543605 0.0
4.912501341257775 0.2529154558175828 0.0
4.342421824442713 1.285376618065631 0.0
7.023506283123107 0.293611963231815 0.0
8.215829626877609 0.2682061590942965 0.0
5.28145265730745 1.291130016052329 0.0
8.693992162747364 1.744100892812201 0.0
0.6256567126095668 1.775064851453201 0.0
0.2724967459749605 1.756941612685287 0.0
8.90781713264278 0.2741674349222226 0.0
7.184202236567151 1.709454269177068 0.0
3.212962614055919 0.2641656831057426 0.0
0.6761590188374282 0.6746441670621973 0.0
1.020489328989316 0.2487299689497893 0.0
1.485017749467193 1.402133856149482 0.0
6.734223224917944 1.790518105434539 0.0
2.657549589911705 0.7636227781082678 0.0
6.542590471647475 1.237213715285722 0.0
7.742745187066703 1.235538225115726 0.0
0.5794341726414672 0.2480285055479751 0.0
1.842901067642841 1.760146518280044 0.0
3.84389577648662 0.7524680119172447 0.0
3.061589173628368 1.407936939342627 0.0
6.144447294584154 0.5911674363009913 0.0
7.344447294585433 0.5911674362995804 0.0
8.544447294586682 0.5911674362982269 0.0
5.491507940982565 0.1734458797927824 0.0
[...]
<PointData Vectors="fields">
<DataArray type="Float64" Name="U" NumberOfComponents="3" format="ascii">
0.0 0.0 0.0
0.024815190651008706 0.0 0.0
0.0019624605104048296 -0.004632003871494882 0.0
0.01235085680506972 -0.03970658499066743 0.0
0.022583962158515762 -0.004240202289788789 0.0
0.0002514385848525519 -0.0046890551363077265 0.0
0.0007583485393995354 -0.007715198176422954 0.0
0.0012153589931661489 -0.010392465627287016 0.0
0.0015995080068824537 -0.012750381869801328 0.0
0.001936872354415272 -0.015001296647536567 0.0
0.0022630252529938573 -0.017164621338390765 0.0
0.0025917830161053517 -0.019247582940230445 0.0
0.002953085411434909 -0.0212605935183137 0.0
0.003326378702671719 -0.02320442824658226 0.0
0.0037292094909343113 -0.025058213128043412 0.0
0.0041514135236532706 -0.02682152786001865 0.0
0.004610695046590288 -0.028495512443325193 0.0
0.005077106424704288 -0.03006703685680432 0.0
0.005589843212286501 -0.031536121636442316 0.0
0.006100398040455988 -0.03289740657216634 0.0
0.006651954954267622 -0.03414524524688725 0.0
0.007206026668601611 -0.03526976197931179 0.0
0.00778967834299475 -0.036278950906809854 0.0
0.008379781066719142 -0.03714061522428534 0.0
0.008977622759166814 -0.03791500616732392 0.0
0.009602857457551572 -0.038542669308978095 0.0
0.010224101599578577 -0.03903367407049309 0.0
0.010866577257569638 -0.03939637202349744 0.0
0.01150120750748421 -0.03961600057724869 0.0
0.012163638297936962 -0.039705308274588604 0.0
0.0128093086823894 -0.03965734468390013 0.0
0.013455534120851707 -0.03946883116787669 0.0
0.014099071533359667 -0.03914588414321704 0.0
0.014734420569256085 -0.03868389385014242 0.0
0.01535234398926821 -0.03809336125776633 0.0
0.015982858628194763 -0.037378996268715034 0.0
0.0165788417630798 -0.036500070895528196 0.0
0.017176354137375838 -0.035536165904348146 0.0
0.0177465717883708 -0.03444420332173213 0.0
0.01831515120926987 -0.03321286768106671 0.0
0.018851164139134853 -0.031868296161316666 0.0
0.019367578618911398 -0.030416530750846403 0.0
0.019846380381643654 -0.028833048462035302 0.0
0.020314519669064827 -0.027184402281753492 0.0
0.02074647451299643 -0.02543416202991531 0.0
0.02116195324711428 -0.023584830930692906 0.0
0.021543876101336387 -0.02164451294976799 0.0
0.02190915313274672 -0.019634136049080174 0.0
0.02224271050055748 -0.017546696653437145 0.0
0.022583100996617967 -0.015378866744032299 0.0
0.02291680607678119 -0.01313284730345088 0.0
0.02328781002220509 -0.01076035527232798 0.0
0.023700164257136672 -0.008185285946441443 0.0
0.02433721930023107 -0.005115000839042753 0.0
0.02093482719605642 -0.0018258231981962553 0.0
0.018431061818633295 -0.002830475184297479 0.0
0.016162126174535652 -0.003468709922408741 0.0
0.014080488487057148 -0.003950270767274835 0.0
0.012062045269750141 -0.004252917139417216 0.0
0.010080361286684452 -0.004449784356367398 0.0
0.008100083413188519 -0.004568232800348506 0.0
0.0060896459665955 -0.004621098346756244 0.0
0.004042760619518869 -0.004631916436092018 0.0
0.001960901641100211 -0.006719992162317866 0.0
0.0019666831349978396 -0.00883516692495275 0.0
0.0020058945216187077 -0.010983445989166063 0.0
0.0020964284922708257 -0.013154411833496422 0.0
0.0022467562375770864 -0.015317483101660171 0.0
0.002451607548889482 -0.017444199119464286 0.0
0.002713698595619635 -0.019542743546240995 0.0
0.003021884621478425 -0.021567075616369523 0.0
0.003376754227421856 -0.023515878315254722 0.0
0.0037819140526115895 -0.02538571159115251 0.0
0.004206131555600145 -0.02715679384173341 0.0
0.004682863541811258 -0.02883244089820756 0.0
0.005164565215238263 -0.030402483791978706 0.0
0.0056903179867717315 -0.031861365781921336 0.0
0.006229799181513328 -0.033209971873075055 0.0
0.006789237013300582 -0.034438562165100994 0.0
0.007351876021193265 -0.035517580827204985 0.0
0.007944829428310301 -0.03652454269161274 0.0
0.008550639656340696 -0.03737140998297912 0.0
0.009152431347344408 -0.038093537708528066 0.0
0.009780413148929983 -0.0386912580302571 0.0
0.010427746444632863 -0.03914818778661008 0.0
0.011052652494376798 -0.039469556660833294 0.0
0.011706379929154707 -0.03965777307388743 0.0
0.013009702991719666 -0.03960778956690031 0.0
0.013638909140227515 -0.039386025063977204 0.0
0.01426147328743936 -0.0390310824823001 0.0
0.014896405030741217 -0.038549156847397716 0.0
0.015522586639077416 -0.037916407530236694 0.0
0.016143426289776525 -0.03715587935413855 0.0
0.016721678469037382 -0.03627488312739663 0.0
0.017304065476567314 -0.03526696889090706 0.0
0.017865177522035352 -0.03414343313944152 0.0
0.018416800950583997 -0.03289756033791377 0.0
0.018931235738714865 -0.03151141145836345 0.0
0.01944029973089475 -0.030059394862994852 0.0
0.019913883735528323 -0.02847563865461687 0.0
0.020360276629786483 -0.026791419821954758 0.0
0.02079304030030636 -0.025010958963212083 0.0
0.021186385088124926 -0.023139016462327328 0.0
0.021531658275728685 -0.02118942520070279 0.0
0.021848944036893327 -0.01915790779042667 0.0
0.022105774901944337 -0.017068064676606473 0.0
0.022310411577633395 -0.014926896956318238 0.0
0.022451998231664234 -0.012766149779202084 0.0
0.022536208267760486 -0.010595321351790678 0.0
0.02257743753588157 -0.008447768398283559 0.0
0.022587131820601746 -0.006327806446468039 0.0
0.020501486275319208 -0.00424126547154822 0.0
0.018451363070726288 -0.004230854069181051 0.0
0.01644013901161791 -0.0041823838204945955 0.0
0.014450571324252632 -0.004070850217919802 0.0
0.012467398870472969 -0.003865123405737937 0.0
0.010446037536616192 -0.003573705799866928 0.0
0.008361143773578838 -0.003108455108985797 0.0
0.006110963330262603 -0.0024656933566751297 0.0
0.0034452588273583364 -0.0013934570710577893 0.0
0.012014425611932923 -0.02035372559037924 0.0
0.01200484601328578 -0.030960356180350236 0.0
0.0122760867106654 -0.037793986396087664 0.0
0.012295076269435908 -0.016328994892515842 0.0
0.012075584170967924 -0.02810320876099351 0.0
0.012154577768245547 -0.036240816900052014 0.0
0.012255228770579182 -0.03986542832342267 0.0
0.014424585242547177 -0.012365555712991722 0.0
0.01256623496654265 -0.039684604565493664 0.0
0.009639907344578862 -0.026110689723154962 0.0
0.010585607523865115 -0.03488557969642298 0.0
0.009385701950936983 -0.022706763525903628 0.0
0.0102961067193173 -0.032691498833094766 0.0
0.011473944528819377 -0.03868860817970003 0.0
0.014064777647038881 -0.0347650565350398 0.0
0.014856747915597816 -0.026251422935847094 0.0
0.013243724458177931 -0.038565927953710805 0.0
0.014527286803878714 -0.03271967924993032 0.0
0.015484066054740921 -0.02268988331119073 0.0
0.011573331360666766 -0.0393421627079912 0.0
0.008943232683056896 -0.014856744133953673 0.0
0.015953059239239353 -0.011009736913218491 0.0
0.00830493068753309 -0.011152008008904278 0.0
0.012172405675587012 -0.039927690035458735 0.0
0.016734893649834198 -0.017666232984853144 0.0
0.013559661229362871 -0.03857937009652826 0.0
0.012177920897555464 -0.039917840293991494 0.0
0.007861020886606269 -0.0216619243666829 0.0
0.008820139645828015 -0.03007280987057903 0.0
0.010349876903112008 -0.037237493122989636 0.0
0.0072085315456449 -0.01790687904376305 0.0
0.00841985567039318 -0.02713192119326667 0.0
0.009858295938400164 -0.03556401359609179 0.0
0.015372684210108272 -0.031677865998283275 0.0
0.0142834866095522 -0.03670682949412499 0.0
0.015797449257630353 -0.028981386873736886 0.0
0.016968953543289582 -0.01780024264152605 0.0
0.007390988499815873 -0.009255020447723394 0.0
0.012951799552134397 -0.039609047558752435 0.0
0.017155740820275246 -0.022120792399289567 0.0
0.01793865315162364 -0.008948506056554704 0.0
0.011310340498940601 -0.03944084244731871 0.0
0.014651359540819135 -0.0367586577696319 0.0
0.011861453426770767 -0.008620079497037348 0.0
0.01209771081989274 -0.008800404624399578 0.0
0.012230671911379611 -0.0399858021491309 0.0
0.009907748110793382 -0.03750437889005725 0.0
0.008163840505896438 -0.030402942511460734 0.0
0.008687808384488464 -0.032926365784161485 0.0
0.016674568574993838 -0.02878624994642401 0.0
0.017160768013531575 -0.025738718569678423 0.0
0.015420586280365602 -0.03472356405180005 0.0
0.012237548241898754 -0.016456048850242103 0.0
0.018324435485712928 -0.013778223890407351 0.0
0.012233493618273956 -0.03899388714223388 0.0
0.012311133725147676 -0.03375151781519054 0.0
0.012309503046491522 -0.038068441893352664 0.0
0.012313223557941323 -0.024307608883582257 0.0
0.012359649742362365 -0.031461421927515276 0.0
0.012161417476509053 -0.020755064643654897 0.0
0.012330644328298553 -0.02792334659917786 0.0
0.012244320840548918 -0.024661332047002143 0.0
0.0122630225026841 -0.03408394434302742 0.0
0.012252396704705019 -0.036047768466113086 0.0
0.012277128412361048 -0.03920905683083794 0.0
0.012867182241813727 -0.03972634670007097 0.0
0.010389263673029121 -0.03841490348427396 0.0
0.006154571282112079 -0.018151581097435948 0.0
0.005719672446742795 -0.014049266751300232 0.0
0.01892834889628376 -0.014130748426500524 0.0
0.011456057561951644 -0.039625956228659914 0.0
0.01916862282719819 -0.007821393093113183 0.0
0.005407337658521734 -0.008029538502732532 0.0
0.006591546796761998 -0.024580603354445556 0.0
0.009113649151215032 -0.035753439943075546 0.0
0.006330230734866564 -0.021253777904109074 0.0
0.00849402521821864 -0.03352798404614092 0.0
0.016020948622674617 -0.03383930394330953 0.0
0.01441185390078893 -0.03801773037868083 0.0
0.016707565732736435 -0.03161049012278273 0.0
0.018363587191373477 -0.021116408507408323 0.0
0.01279175390587203 -0.01275451737977741 0.0
0.010464253541731906 -0.03861254377997197 0.0
0.005388134078726756 -0.012874242900076488 0.0
0.006886468711621507 -0.02773336438427256 0.0
0.006355077803305376 -0.02450793819359217 0.0
0.011398782010238922 -0.038314998261857476 0.0
0.009593262293546661 -0.018557968664014886 0.0
0.009314396707962743 -0.015138117926093566 0.0
0.018019719561348024 -0.02551773269140041 0.0
0.011431166782977292 -0.012410823300107923 0.0
0.010408464725996576 -0.032238578683527294 0.0
0.011095408478682262 -0.03708660257427411 0.0
0.010156858704571106 -0.02959804897567755 0.0
0.014218609363212812 -0.029548420503882677 0.0
0.014438047946522693 -0.026573462328806183 0.0
0.013637467668175961 -0.03529637682024878 0.0
0.013605380577466433 -0.03915953709806598 0.0
0.014806967842510873 -0.00753295568654263 0.0
0.013753836398524887 -0.03896454489493476 0.0
0.015033796717262373 -0.007289024164771449 0.0
0.009043266632008967 -0.007750041181854743 0.0
0.011875874557895566 -0.039520436797991464 0.0
0.015250752268822302 -0.014934076418078306 0.0
0.012623786749303133 -0.03982390205450114 0.0
0.013263906899404822 -0.03702466330744705 0.0
0.014358254521298927 -0.0224713886312854 0.0
0.012153536375308237 -0.0396537763224914 0.0
0.012451753992439248 -0.039897511864331534 0.0
0.01884838282065934 -0.019583907102896897 0.0
0.005456928268210101 -0.00621210021386998 0.0
0.015756042594002744 -0.03554507119832774 0.0
0.01173059204772835 -0.03976177921481591 0.0
0.01464242522062633 -0.03794278213210331 0.0
0.012367249647097891 -0.039935289567495404 0.0
0.009386224759033227 -0.006556575157007803 0.0
0.00995468460468233 -0.023548411663790333 0.0
0.009559948469239282 -0.019743595165950888 0.0
0.010244973616523228 -0.028564343059771177 0.0
0.01103229586134324 -0.03640895700993122 0.0
0.010022894827285696 -0.025435361821529064 0.0
0.010773996201985441 -0.034528946070666554 0.0
0.013604578810825918 -0.032387308537021056 0.0
0.01422212948656986 -0.018593905430986844 0.0
0.013759132098483279 -0.0298690341998513 0.0
0.013083089665264743 -0.03722943198158847 0.0
0.012628108111881087 -0.039554945833381455 0.0
0.01191797872989565 -0.03980219590837832 0.0
0.007365953001970004 -0.031187286052025576 0.0
0.006737529770776159 -0.02841004276101646 0.0
0.008812399516111733 -0.03639811238503648 0.0
0.019550372052783475 -0.016326716486041774 0.0
0.017750926576534768 -0.030497427411627892 0.0
0.015745143205261547 -0.035932577049444 0.0
0.01806035712677432 -0.02773221223379769 0.0
0.012905537258587105 -0.038436667648093545 0.0
0.010923283999432928 -0.03924962194269431 0.0
0.01544973523875174 -0.015358132798536664 0.0
0.014297911480307268 -0.018349509016666474 0.0
0.009620506252349266 -0.03766385550830198 0.0
0.004879998105146819 -0.011223256115767749 0.0
0.019970352694215036 -0.01084445854815147 0.0
0.0053719751663800705 -0.0205001285974853 0.0
0.01241806911357985 -0.039840938415626366 0.0
0.011973830238842584 -0.03981258408292103 0.0
0.012866864509270867 -0.03916106059594567 0.0
0.016514011876426076 -0.033183131926871924 0.0
0.018694896480598865 -0.023512731901727257 0.0
0.012024765714481423 -0.03985734318131913 0.0
0.005163807344308381 -0.01861835198985367 0.0
0.02016255476934841 -0.010884937997379801 0.0
0.020049445133946853 -0.00708472695793564 0.0
0.01947226171073648 -0.016452037394264447 0.0
0.007701841713727078 -0.03208897218798557 0.0
0.00821244566604643 -0.03433469063916985 0.0
0.009177406692375394 -0.011340321733030585 0.0
0.00469750306973146 -0.015279399646207338 0.0
0.015993129921391045 -0.02014915845366455 0.0
0.008123400404259712 -0.034898516319814304 0.0
0.010641049829801921 -0.030705184328526626 0.0
0.01116969820800167 -0.03608300983687942 0.0
0.010450362858414563 -0.027844584432563244 0.0
0.004347668984363052 -0.01015138547862091 0.0
0.018890048645925826 -0.023620408346593454 0.0
0.011347377960688626 -0.03758326994288816 0.0
0.01463591638279894 -0.03348514849312624 0.0
0.01367113660467336 -0.03780973884637503 0.0
0.01502697330249409 -0.031010415808932018 0.0
0.016002605786957218 -0.020302119085823182 0.0
0.013477184766127833 -0.03943177736507557 0.0
0.010277730406246473 -0.021010721613392395 0.0
0.017041276249769744 -0.03255381861461895 0.0
0.017732076658785147 -0.030111428673798492 0.0
0.015193863426426693 -0.037269917106934065 0.0
0.017010638429691468 -0.011467756999208607 0.0
0.010249542790347437 -0.011124131755204393 0.0
0.010714234159515118 -0.03907546502702876 0.0
0.013707233680435155 -0.03767574209915907 0.0
0.006446288193529343 -0.029440761523594962 0.0
0.005789378637047418 -0.026430019409356843 0.0
0.013290958551463644 -0.03906324546911005 0.0
0.009977066218671813 -0.017812308819422237 0.0
0.016600283422666975 -0.024757571572757393 0.0
0.01403596850044016 -0.009947175510684025 0.0
0.014327912874421256 -0.0386239607144543 0.0
0.01736183989080191 -0.005861531057809864 0.0
0.008985808763440798 -0.036663669467349974 0.0
0.005330878756866705 -0.022774504146450388 0.0
0.013035140437770586 -0.039503269954966995 0.0
0.009664831246676843 -0.03795313964243011 0.0
0.014055760938710112 -0.036145111186794754 0.0
0.018506174592856677 -0.0275745176195923 0.0
0.012244293317998025 -0.03998423957601622 0.0
0.012704697834877621 -0.006536352806483668 0.0
0.011446914591973454 -0.039232008483072164 0.0
0.012014190695829076 -0.03868516301365004 0.0
0.011412816269034697 -0.02273414796929572 0.0
0.011670451376485466 -0.03270286768499692 0.0
0.011517473541168468 -0.026119219148168747 0.0
0.011746363860794444 -0.03488360193449007 0.0
0.004540123333289782 -0.01595692659672979 0.0
0.012984656146261776 -0.006396847310253945 0.0
0.015422204076001296 -0.036995186271290434 0.0
0.012249863832303618 -0.03998055809912725 0.0
0.011919030992602485 -0.03984834514392108 0.0
0.009707523442093212 -0.00868697885123524 0.0
0.019986349118520437 -0.018642832669643117 0.0
0.015551770367279292 -0.0248334099342429 0.0
0.015564953911247953 -0.02783865487085923 0.0
0.014448112515150113 -0.03416315675333086 0.0
0.009656401740848655 -0.031242120429635586 0.0
0.010003508968934526 -0.03365530202902265 0.0
0.01099170214555986 -0.03800949057578008 0.0
0.005580899269936596 -0.02613417950122148 0.0
0.005012629539790665 -0.02274217390463033 0.0
0.01025274212928636 -0.03660300423575085 0.0
0.008794488755358097 -0.028845208602826966 0.0
0.009193910490991379 -0.0315785204379145 0.0
0.014172113811783559 -0.02439330461988373 0.0
0.013734883685107864 -0.010485328341142498 0.0
0.007215557323590759 -0.006625396185952492 0.0
0.016958664589910723 -0.005697674806684909 0.0
0.012869387905483674 -0.03485845445406493 0.0
0.013212727804012826 -0.02626386609679843 0.0
0.012601212345645315 -0.038618829436699975 0.0
0.013013537845355092 -0.03265845866691887 0.0
0.01329609599295895 -0.022570585678419384 0.0
0.01907157368697854 -0.02168412882319919 0.0
0.007402529107667402 -0.005008451546461276 0.0
0.015572544549222536 -0.030309093366881146 0.0
0.014525376210685705 -0.03580008053651314 0.0
0.015973435547741846 -0.02743089470404463 0.0
0.011551015074619213 -0.029496826808974173 0.0
0.011817844097114812 -0.035267249378470186 0.0
0.011465534752067755 -0.026459702192823703 0.0
0.013440455116510108 -0.039437032402700786 0.0
0.011857436130674047 -0.03702749249421856 0.0
0.008660021402435106 -0.02753173529114897 0.0
0.008303512476907221 -0.02427728133634319 0.0
0.014451879835134606 -0.03850633851919504 0.0
0.012623525303602688 -0.039804739150503456 0.0
0.010323368432794367 -0.01662385218943036 0.0
0.011484230766304808 -0.01834900286159215 0.0
0.011247678908810954 -0.014349764414222078 0.0
0.010803138086045572 -0.038225729617789916 0.0
0.011532761872308107 -0.022421659429010695 0.0
0.006482203496474288 -0.029718346485892718 0.0
0.007198409860901884 -0.032322616704894835 0.0
0.012321406930878754 -0.0398280549215436 0.0
0.018585146970817118 -0.026123977602073353 0.0
0.0162786514901707 -0.03493530540429082 0.0
0.009471803527871905 -0.03471402009173393 0.0
0.009022169332431808 -0.03246062304217212 0.0
0.007884600635201867 -0.018961257223580046 0.0
0.020707616339299434 -0.0052159350220929495 0.0
0.004155926645960492 -0.006828705154676309 0.0
0.013002885785539434 -0.01404065032288986 0.0
0.012762294759189125 -0.039196042337508855 0.0
0.01201145079009898 -0.038486926762536997 0.0
0.011739210850258799 -0.038937064379751044 0.0
0.010797281751858958 -0.006591318887126494 0.0
0.011094136217823257 -0.039462267896689295 0.0
0.020273463982744377 -0.014086391378549997 0.0
0.011641297398066077 -0.018540692365811122 0.0
0.016212439623695427 -0.009603537095637453 0.0
0.01115443535199666 -0.03878287260255936 0.0
0.01185388083338022 -0.03243163030962195 0.0
0.011990150633403423 -0.03728116366144336 0.0
0.011768080174299613 -0.029940459142106482 0.0
0.007980822351246378 -0.01691776780669769 0.0
0.008131276092927613 -0.023576311308917745 0.0
0.007809359877874218 -0.01991915806934142 0.0
0.010147195388846581 -0.036389881231119504 0.0
0.009672931693688398 -0.034474298538804196 0.0
0.01246011890074667 -0.03944596192300199 0.0
0.009781117881165166 -0.03831290916930275 0.0
0.017017595561452062 -0.015815251033653156 0.0
0.01717211374083081 -0.022699567569206706 0.0
0.015678144339263678 -0.03269382727968626 0.0
0.01189279353634528 -0.03920521972921373 0.0
0.013737257948980628 -0.03861744012172373 0.0
0.00408484004717326 -0.018537707705208684 0.0
0.007437397343199114 -0.015574559232599077 0.0
0.007812991158303185 -0.013399773497587654 0.0
0.014248982868155673 -0.02044957880917191 0.0
0.013532492558170288 -0.03355188812449621 0.0
0.013779793319482538 -0.03118848378420815 0.0
0.01302170887261763 -0.03790977429851338 0.0
0.015158240903222557 -0.03500263595119031 0.0
0.011148159778166022 -0.03368752602401262 0.0
0.011647749870186838 -0.038022376913636094 0.0
0.010985038295293834 -0.031315973590344624 0.0
0.02016730907936964 -0.008925290577939098 0.0
0.012197828256616158 -0.03962283137862178 0.0
0.014274143905843362 -0.03108045473738386 0.0
0.014434775297179691 -0.02855530514871153 0.0
0.013529994007607536 -0.036487701909407956 0.0
0.013189088736624395 -0.03595248945355452 0.0
0.00903577783184813 -0.037109103785322416 0.0
0.012458571118872129 -0.039900022975491646 0.0
0.013423526546521455 -0.033944105114920325 0.0
0.013977852805983983 -0.024470359141795767 0.0
0.013925625496414603 -0.016518751151627466 0.0
0.016410478858360385 -0.03457342147167631 0.0
0.007564576651033962 -0.009122924457977659 0.0
0.016635213400660126 -0.00864225651373318 0.0
0.018147102091044632 -0.029248897880404752 0.0
0.006800596880606722 -0.014912343464246773 0.0
0.011296575420899055 -0.039404120200632664 0.0
0.016842064775959766 -0.013116424235036433 0.0