<VTKFile type="UnstructuredGrid"  version="0.1">
<UnstructuredGrid>
<Piece NumberOfPoints="713" NumberOfCells="1304">
<Points>
<DataArray type="Float64" NumberOfComponents="3" format="ascii">
0.0 0.0 0.0
10.0 0.0 0.0
10.0 2.0 0.0
5.0 2.0 0.0
0.0 2.0 0.0
0.199999999999856 0.0 0.0
0.3999999999996677 0.0 0.0
0.5999999999994683 0.0 0.0
0.7999999999993286 0.0 0.0
0.9999999999991888 0.0 0.0
1.199999999999033 0.0 0.0
1.399999999998576 0.0 0.0
1.599999999997992 0.0 0.0
1.799999999997408 0.0 0.0
1.999999999996825 0.0 0.0
2.199999999996241 0.0 0.0
2.399999999995657 0.0 0.0
2.599999999995073 0.0 0.0
2.79999999999449 0.0 0.0
2.999999999993906 0.0 0.0
3.199999999993322 0.0 0.0
3.399999999992738 0.0 0.0
3.599999999992154 0.0 0.0
3.799999999991571 0.0 0.0
3.999999999991022 0.0 0.0
4.199999999991187 0.0 0.0
4.399999999991491 0.0 0.0
4.599999999991795 0.0 0.0
4.799999999992099 0.0 0.0
4.999999999992403 0.0 0.0
5.199999999992706 0.0 0.0
5.39999999999301 0.0 0.0
5.599999999993313 0.0 0.0
5.799999999993618 0.0 0.0
5.999999999993922 0.0 0.0
6.199999999994227 0.0 0.0
6.39999999999453 0.0 0.0
6.599999999994833 0.0 0.0
6.799999999995138 0.0 0.0
6.999999999995442 0.0 0.0
7.199999999995747 0.0 0.0
7.39999999999605 0.0 0.0
7.599999999996353 0.0 0.0
7.799999999996658 0.0 0.0
7.999999999996962 0.0 0.0
8.199999999997265 0.0 0.0
8.399999999997569 0.0 0.0
8.599999999997873 0.0 0.0
8.799999999998176 0.0 0.0
8.99999999999848 0.0 0.0
9.199999999998786 0.0 0.0
9.399999999999089 0.0 0.0
9.599999999999392 0.0 0.0
9.799999999999697 0.0 0.0
10.0 0.1999999999996293 0.0
10.0 0.3999999999991157 0.0
10.0 0.5999999999985328 0.0
10.0 0.7999999999979498 0.0
10.0 0.9999999999973885 0.0
10.0 1.199999999997894 0.0
10.0 1.39999999999842 0.0
10.0 1.599999999998947 0.0
10.0 1.799999999999474 0.0
9.799999999999999 2.0 0.0
9.6 2.0 0.0
9.399999999999999 2.0 0.0
9.2 2.0 0.0
8.999999999999998 2.0 0.0
8.799999999999999 2.0 0.0
8.599999999999998 2.0 0.0
8.399999999999999 2.0 0.0
8.2 2.0 0.0
7.999999999999998 2.0 0.0
7.799999999999999 2.0 0.0
7.599999999999999 2.0 0.0
7.399999999999999 2.0 0.0
7.199999999999999 2.0 0.0
7.0 2.0 0.0
6.799999999999999 2.0 0.0
6.6 2.0 0.0
6.399999999999999 2.0 0.0
6.199999999999999 2.0 0.0
5.999999999999999 2.0 0.0
5.8 2.0 0.0
5.6 2.0 0.0
5.399999999999999 2.0 0.0
5.199999999999999 2.0 0.0
4.8 2.0 0.0
4.6 2.0 0.0
4.399999999999999 2.0 0.0
4.199999999999998 2.0 0.0
3.999999999999999 2.0 0.0
3.799999999999999 2.0 0.0
3.599999999999999 2.0 0.0
3.399999999999999 2.0 0.0
3.199999999999998 2.0 0.0
2.999999999999999 2.0 0.0
2.799999999999999 2.0 0.0
2.599999999999999 2.0 0.0
2.399999999999999 2.0 0.0
2.199999999999999 2.0 0.0
2.0 2.0 0.0
1.799999999999999 2.0 0.0
1.599999999999999 2.0 0.0
1.399999999999999 2.0 0.0
1.199999999999999 2.0 0.0
0.9999999999999991 2.0 0.0
0.7999999999999998 2.0 0.0
0.5999999999999996 2.0 0.0
0.3999999999999995 2.0 0.0
0.1999999999999993 2.0 0.0
0.0 1.799999999999167 0.0
0.0 1.6 0.0
0.0 1.400000000001387 0.0
0.0 1.200000000002774 0.0
0.0 1.000000000004117 0.0
0.0 0.8000000000033287 0.0
0.0 0.6000000000024965 0.0
0.0 0.4000000000016644 0.0
0.0 0.200000000000832 0.0
1.499207686858938 0.9671416246672391 0.0
2.690335006295381 0.9619521672166851 0.0
3.892537609238439 1.007271393615351 0.0
8.916602958236062 0.9848120741100651 0.0
7.714518201951718 1.024234589865042 0.0
6.514518201951581 1.024234589865268 0.0
5.299999999999998 1.000000000000349 0.0
0.7620577975594133 1.201991596673393 0.0
4.61755859746166 1.240410629378135 0.0
2.099999999996533 0.6749999999988996 0.0
3.289480163184942 0.6802242156869155 0.0
8.299999999999976 1.325000000000064 0.0
7.110519836808121 1.319775784312006 0.0
5.893184537067197 1.292851873188582 0.0
3.268568008578649 1.341967835735878 0.0
2.118368267083699 1.321829331075689 0.0
5.930896443153832 0.6493414313150682 0.0
7.106926174231782 0.6329785805444448 0.0
8.306926174233002 0.6329785805444098 0.0
4.427960725065653 0.6389803625370323 0.0
0.9828791719046732 0.6520555711814596 0.0
9.383333333333349 0.6166666666667164 0.0
9.383333333333326 1.383333333333367 0.0
4.974443803660211 0.5526668589022862 0.0
1.248084267804327 1.464555585366204 0.0
4.139486343919472 1.468449088519687 0.0
5.077806736162063 1.478342020848787 0.0
1.629462398503482 0.5098631373669138 0.0
2.579462070540726 0.5133714280880515 0.0
3.770778974032556 0.5099482598296803 0.0
8.764748922637567 1.526880805960684 0.0
7.820537929455645 1.486628571911716 0.0
6.632254923791462 1.492045881343967 0.0
2.796478414430566 1.477149214423874 0.0
6.403521585563812 0.5228507855762514 0.0
7.603521585564883 0.5228507855756581 0.0
8.783559188644787 0.5066440811355862 0.0
0.5060338924245764 0.5082251307884346 0.0
5.451633334958382 0.4799315318847731 0.0
1.683269995544083 1.547372422998862 0.0
0.448590368789599 1.551409631210402 0.0
5.545526974704655 1.582008455135239 0.0
3.666056976948354 1.56999765613834 0.0
0.4385739326402744 0.9352922270094057 0.0
9.58170539854767 0.9922137522194456 0.0
4.93200119575972 0.9247090920592975 0.0
6.20679636316332 1.642443126922768 0.0
7.418963044745086 1.587405313446662 0.0
2.98103695524982 0.412594686552066 0.0
2.420975602092416 1.592770352831584 0.0
7.97902439790374 0.4072296471687943 0.0
6.779024397902082 0.4072296471687297 0.0
1.130444757308209 0.9859238872709168 0.0
0.8901814758011342 1.60566856081121 0.0
4.263670373274499 0.9915754392410991 0.0
3.096698167273431 1.009056907826855 0.0
6.088506433998166 0.9857489435828969 0.0
1.902225037409936 1.003483800311746 0.0
7.288506433998439 0.9857489435828686 0.0
8.498964973312972 1.005823551167602 0.0
2.307571737417198 1.008136792450924 0.0
8.100397971125554 1.000138280273345 0.0
6.900397971125225 1.000138280273792 0.0
3.499307350770321 0.9996496628144824 0.0
5.703656022566558 0.9885479657552226 0.0
4.719420624357892 1.622286409566126 0.0
4.099803549896894 0.3600308081356619 0.0
1.286100671532495 0.3637431910670685 0.0
9.120549139677793 1.655065205594329 0.0
9.11726214008418 0.3400668903113251 0.0
4.642568097328033 0.3514924793220939 0.0
9.630437629189052 0.3309104953729904 0.0
9.674493769554315 1.668196579944218 0.0
1.936458797611609 0.3337070483410596 0.0
3.461817573918652 0.3447876019040473 0.0
8.440152788772068 1.649667667046397 0.0
6.973083089482548 1.643748677366674 0.0
3.126874515006838 1.659115470008545 0.0
6.070607878384977 0.3410183041038941 0.0
7.255014454789089 0.32792256737713 0.0
8.462493615948901 0.3368393217476116 0.0
9.236261261261264 0.9276047786917867 0.0
5.885444386845415 1.667751020273455 0.0
0.8062340689595878 0.3261579034781319 0.0
2.29463843780282 0.308358158429197 0.0
8.10536156219338 1.691641841570632 0.0
4.041916759198581 0.7211683801597477 0.0
1.324377365289917 0.710525897087282 0.0
9.023167917315867 1.292262965009952 0.0
2.044244009166302 1.693807225416931 0.0
0.7675765545556328 0.8969765944392112 0.0
2.86965991063896 0.7069213925303978 0.0
6.330340089355722 1.293078607468788 0.0
7.530340089355831 1.29307860746885 0.0
2.509347777214458 1.27231292939881 0.0
7.890652222779963 0.7276870706009825 0.0
6.690652222780154 0.7276870706013264 0.0
4.380959112578968 1.65866292149053 0.0
0.3278422400819535 1.233362752678148 0.0
5.754468991464942 0.3469215055361071 0.0
9.69195804401614 0.7000195364707393 0.0
9.691250997975434 1.303243780084337 0.0
5.54324561063747 1.237401556904767 0.0
9.044596057577811 0.6843248705785732 0.0
5.208929198448351 0.3519433027337513 0.0
3.708880196230617 1.249762029554333 0.0
1.713349558540635 1.234899745098077 0.0
4.586522821995393 0.9261740906803194 0.0
5.241145838821565 0.7007005766013242 0.0
1.434457446926135 1.701926055218157 0.0
0.2821921707428039 0.3393165318407161 0.0
3.42846431357046 1.714274134409306 0.0
5.26283485467567 1.710141275531951 0.0
3.966530105129177 1.718376080180638 0.0
4.891301048299285 1.259923533724591 0.0
0.2787500712946937 0.6906723798523376 0.0
1.822166578929051 0.7301892210727335 0.0
8.593276160688786 1.287322908694633 0.0
2.386017956680413 0.7288816957021155 0.0
3.576911792171353 0.7225526638483954 0.0
8.013982043315597 1.271118304297217 0.0
6.82303669320588 1.277631295759485 0.0
2.891837633696712 1.215141906356511 0.0
8.708162366297856 0.7848580936429009 0.0
7.496736072543097 0.7897651325976158 0.0
6.296736072542775 0.7897651325982009 0.0
5.523181420933933 0.7588744249744506 0.0
4.725538117155759 0.6529070682798582 0.0
2.736307197014292 0.273961667653487 0.0
7.663692802980817 1.726038332346062 0.0
6.446842959287713 1.783714797320288 0.0
1.126188383272983 1.743715177525389 0.0
2.64757240694847 1.787239829472812 0.0
6.546646507559373 0.2589894635657943 0.0
7.746646507561152 0.2589894635657218 0.0
4.079302268890254 1.221431431691139 0.0
4.433746883463333 0.2983726043497702 0.0
1.032697650548726 1.318076986199429 0.0
1.309492735411376 1.208980965369829 0.0
3.896105387998365 0.2579746081881307 0.0
9.378751775005455 1.725996478164223 0.0
9.3965279828929 0.2649862374471925 0.0
1.515757555362918 0.2603060454608533 0.0
4.959097093232828 1.726144293543605 0.0
4.912501341257775 0.2529154558175828 0.0
4.342421824442713 1.285376618065631 0.0
7.023506283123107 0.293611963231815 0.0
8.215829626877609 0.2682061590942965 0.0
5.28145265730745 1.291130016052329 0.0
8.693992162747364 1.744100892812201 0.0
0.6256567126095668 1.775064851453201 0.0
0.2724967459749605 1.756941612685287 0.0
8.90781713264278 0.2741674349222226 0.0
7.184202236567151 1.709454269177068 0.0
3.212962614055919 0.2641656831057426 0.0
0.6761590188374282 0.6746441670621973 0.0
1.020489328989316 0.2487299689497893 0.0
1.485017749467193 1.402133856149482 0.0
6.734223224917944 1.790518105434539 0.0
2.657549589911705 0.7636227781082678 0.0
6.542590471647475 1.237213715285722 0.0
7.742745187066703 1.235538225115726 0.0
0.5794341726414672 0.2480285055479751 0.0
1.842901067642841 1.760146518280044 0.0
3.84389577648662 0.7524680119172447 0.0
3.061589173628368 1.407936939342627 0.0
6.144447294584154 0.5911674363009913 0.0
7.344447294585433 0.5911674362995804 0.0
8.544447294586682 0.5911674362982269 0.0
5.491507940982565 0.1734458797927824 0.0
[...]
<PointData Vectors="fields">
<DataArray type="Float64" Name="U" NumberOfComponents="3" format="ascii">
0.0 0.0 0.0
0.03214127369313778 0.0 0.0
0.002797366091512566 -0.006078780740191879 0.0
0.01597608228848507 -0.05121738536275727 0.0
0.02927780864915796 -0.005542554213725066 0.0
0.00032916140037820077 -0.0061056778498251325 0.0
0.0009923509568829092 -0.010035521579076969 0.0
0.001590001008945124 -0.013508755973869956 0.0
0.002091909830034137 -0.01656408327950773 0.0
0.0025319177743462545 -0.01947953416315753 0.0
0.002956907015654078 -0.022280752934166002 0.0
0.0033849124546802742 -0.024977578780875753 0.0
0.0038553255785534566 -0.027583862807015212 0.0
0.0043421001707052665 -0.03010087446713512 0.0
0.004869226768629075 -0.03250163125017343 0.0
0.005424459247645792 -0.03478503702217705 0.0
0.006031903643574027 -0.03695264530905154 0.0
0.006653502730549688 -0.038986136568768516 0.0
0.007341285152356892 -0.040885269687888685 0.0
0.008030806233026613 -0.04264157012811532 0.0
0.008778132341903278 -0.04424734011884742 0.0
0.009529066299536825 -0.0456888074268432 0.0
0.010317034249434691 -0.046976530792673984 0.0
0.011106721753410195 -0.04806834394255241 0.0
0.011901200105695574 -0.04904461956682486 0.0
0.012721450092657662 -0.04982735215567267 0.0
0.013528105881768247 -0.05043218449825627 0.0
0.014354845389079334 -0.05087077178551033 0.0
0.015165839298889114 -0.05112528310119011 0.0
0.016008764786876364 -0.051213031118769715 0.0
0.016827955359557095 -0.05112563274669118 0.0
0.017646590841392643 -0.050859289363991034 0.0
0.01846132836905007 -0.05042204661787319 0.0
0.019265546866909202 -0.04980815653474262 0.0
0.020047627397361156 -0.04903106238890875 0.0
0.020845629128133883 -0.04809679526242558 0.0
0.021599829515196782 -0.04695381997360874 0.0
0.02235571213992421 -0.045703177607896765 0.0
0.023076804447248668 -0.04429037368270291 0.0
0.023795830323249154 -0.04270142117583626 0.0
0.024473535103878084 -0.04096950900592852 0.0
0.0251263801690494 -0.03910248645393563 0.0
0.025732024090192197 -0.037069504854602496 0.0
0.02632427226010274 -0.034954509260664055 0.0
0.026871256693117507 -0.032711558838364116 0.0
0.027398181005602252 -0.03034355902302465 0.0
0.027883457763085172 -0.02786045174679716 0.0
0.02834898604653821 -0.025288288355824216 0.0
0.02877582175700767 -0.02261734157287739 0.0
0.029213949978012167 -0.019842759055585524 0.0
0.02964645046944511 -0.01696604534255403 0.0
0.03013087075393504 -0.013923387250708762 0.0
0.030672555181179343 -0.010614093971671784 0.0
0.031511459487289485 -0.006652447550337912 0.0
0.027114017494197267 -0.0024019762308396036 0.0
0.023897878859094272 -0.0037226099532194495 0.0
0.020988178536366805 -0.004559727929695422 0.0
0.018321939579092488 -0.005189522122861858 0.0
0.015736455123962427 -0.005584326531732001 0.0
0.01319802132913032 -0.005840748577848344 0.0
0.01066124265787566 -0.005995100882004602 0.0
0.008085614651997596 -0.006064187671638311 0.0
0.00546311556610921 -0.006078563472070424 0.0
0.00279542722301287 -0.00875459257417799 0.0
0.002803274327093515 -0.011465481712301651 0.0
0.0028544171916474285 -0.01421846476429491 0.0
0.002971507026390917 -0.016999491852536793 0.0
0.003164418598994168 -0.01976889922929197 0.0
0.003425397766921221 -0.02249036225932881 0.0
0.0037578360212005653 -0.02517493985709506 0.0
0.00414685469919411 -0.027764263794734394 0.0
0.004593344220311555 -0.03025751886833405 0.0
0.00510222486984902 -0.032650773145686464 0.0
0.005634615090251645 -0.03491956931825979 0.0
0.006233359396865442 -0.03706821941819125 0.0
0.006839183631493488 -0.03908404762763581 0.0
0.007501855744802113 -0.040959953117030365 0.0
0.008183463127845916 -0.04269694088125939 0.0
0.00889188670908988 -0.044282490123428796 0.0
0.009606194363941658 -0.04567898626986312 0.0
0.010359756449085218 -0.046984244125001955 0.0
0.011130840795534717 -0.048086761150242234 0.0
0.011897490822173083 -0.04903111851773014 0.0
0.012697804537260542 -0.04981770792275832 0.0
0.01352298336800754 -0.05042571266145119 0.0
0.01431975078651172 -0.05086150314526211 0.0
0.015153482449882384 -0.051128224425535974 0.0
0.01681839849938841 -0.05111822392763266 0.0
0.017624657802084415 -0.05086157860115145 0.0
0.018424989202661557 -0.050433273080947826 0.0
0.019245076191688876 -0.049840829994056805 0.0
0.020058262502548014 -0.04905158344819674 0.0
0.0208691387698912 -0.0480942383761807 0.0
0.021627890045125928 -0.04697752881248208 0.0
0.022395575930408473 -0.04569218805225518 0.0
0.023137128152607593 -0.04425276463530622 0.0
0.023866649374529345 -0.04265013340662786 0.0
0.024545542858769392 -0.04086088322740021 0.0
0.02521557991350066 -0.03898457885879353 0.0
0.025835297526836068 -0.0369345314454034 0.0
0.026415841262900308 -0.03475324568117026 0.0
0.026975469253357386 -0.03244680436980703 0.0
0.02748155549184029 -0.03002222547616282 0.0
0.027924275888277034 -0.027497421488417217 0.0
0.028330839333634814 -0.024866978502354944 0.0
0.028660272855054104 -0.022160988375283724 0.0
0.028923584125191307 -0.019388302791875766 0.0
0.029106355501116815 -0.016589611327510224 0.0
0.02921556124525434 -0.01377725846244515 0.0
0.029269198923999217 -0.010994564698205813 0.0
0.029281916998598858 -0.00824753419035293 0.0
0.0265795301685844 -0.005543915613844028 0.0
0.023923341664966437 -0.005530282356220096 0.0
0.021317741396649572 -0.005467065797661396 0.0
0.018740395381425908 -0.0053216799257339185 0.0
0.01617164746321866 -0.0050534257255860126 0.0
0.013553569800447057 -0.004673092258077102 0.0
0.010853096316702136 -0.004065449962547012 0.0
0.007937178169944988 -0.0032252952024393604 0.0
0.0044782870391899335 -0.0018229735534829518 0.0
0.015592101785858254 -0.026411514496955765 0.0
0.015607817291933088 -0.040153882058753455 0.0
0.015993627051454875 -0.048912341636859834 0.0
0.016034503031051188 -0.02106129869287498 0.0
0.015744504304768925 -0.03612818963475418 0.0
0.01584317044274619 -0.04660898892910511 0.0
0.015981327842827624 -0.051377894714907286 0.0
0.0187075500807204 -0.016069436232043502 0.0
0.016344254831284957 -0.051241135990784586 0.0
0.012527483519389235 -0.03386850077106082 0.0
0.013821303641054163 -0.04521479360137421 0.0
0.01229680472551536 -0.029218775077814403 0.0
0.013439908798792302 -0.04202422743312854 0.0
0.014943915068905996 -0.049802523834629894 0.0
0.018261873415854484 -0.045060277967277206 0.0
0.01928649069722418 -0.034052736581092494 0.0
0.017283209974158657 -0.04964029725787158 0.0
0.0189084206577411 -0.04206094428936718 0.0
0.020122188764744225 -0.029196505812907975 0.0
0.015161600008207071 -0.05082708825727911 0.0
0.011609145678361988 -0.01929353600795665 0.0
0.020720259371603846 -0.014246942264524045 0.0
0.010923206393125202 -0.014434216751309759 0.0
0.015942436390761844 -0.051499687124291676 0.0
0.021704309081449394 -0.02293408328153746 0.0
0.017588892668590164 -0.049889746931424214 0.0
0.015819900058827732 -0.05147631534176358 0.0
0.010213000950820096 -0.028104733325723587 0.0
0.011489094312214036 -0.039001498551067576 0.0
0.01357862166883838 -0.04820674851027661 0.0
0.009514598566028529 -0.023081325369983172 0.0
0.011043406341254086 -0.03488397035662506 0.0
0.012858618865415724 -0.04573393272805231 0.0
0.019954306202331212 -0.04108136406775294 0.0
0.018617068766517836 -0.047215340778004114 0.0
0.02053315799894218 -0.037256455337095276 0.0
0.02202249687582668 -0.0229421167640605 0.0
0.009596959997955382 -0.012035062185096743 0.0
0.016940315596011814 -0.05103010406108543 0.0
0.02225763408440662 -0.02870184422030959 0.0
0.023259192000626344 -0.011643204466165012 0.0
0.014700183856592195 -0.05080598648092114 0.0
0.018991929157056185 -0.04760038540342395 0.0
0.015387494883630014 -0.011214976675085066 0.0
0.01578136814270864 -0.01141668157210326 0.0
0.015961267821930705 -0.05158076719425742 0.0
0.012903049116116273 -0.04825549388931459 0.0
0.01069839135943473 -0.03908119992777972 0.0
0.011357127122210054 -0.04268957967103828 0.0
0.02164261404440065 -0.03733823849018837 0.0
0.02227620140738244 -0.03309999425620798 0.0
0.020072894819692655 -0.044647298765458664 0.0
0.015876966264850616 -0.02136550549045768 0.0
0.023759969890366574 -0.017900235350705028 0.0
0.01594899535304191 -0.05040519196601821 0.0
0.016015650741293463 -0.04375910980677762 0.0
0.01604776903561514 -0.04898761769555455 0.0
0.015986159414030147 -0.031532685807985114 0.0
0.01610863595139031 -0.040440698804679584 0.0
0.01586082947593987 -0.026721870416082007 0.0
0.01601794241894914 -0.03621906764859208 0.0
0.015964333542069397 -0.03171900184030336 0.0
0.01598348894430275 -0.0438191758813849 0.0
0.01595307407260033 -0.04670266315134994 0.0
0.016008705945055417 -0.050488860470283635 0.0
0.01668255185804036 -0.05128115838412681 0.0
0.013675785536357036 -0.049680496325450005 0.0
0.007998496455013151 -0.023559266757883182 0.0
0.007611191683780867 -0.018145489128204222 0.0
0.02453257406101967 -0.01824557932724978 0.0
0.015059304712489554 -0.051159375264216524 0.0
0.0248418859843076 -0.010148256144776244 0.0
0.007211429807863357 -0.010432756485811382 0.0
0.00857437993987561 -0.03188473091528525 0.0
0.011972146404836938 -0.046319306560259316 0.0
0.008382974070709533 -0.027361796265611565 0.0
0.011105140189655183 -0.04310381418705622 0.0
0.020775211068516628 -0.04386745032985986 0.0
0.018807226816457672 -0.04892501352247448 0.0
0.02171294428582908 -0.04063499587256146 0.0
0.02381085163039192 -0.027184095984902103 0.0
0.016671263166963855 -0.01648560995542823 0.0
0.01361003210513688 -0.04970691892219365 0.0
0.007002135999005266 -0.016725266772079864 0.0
0.008970342076007269 -0.03596915265944996 0.0
0.008403782585127731 -0.03152482680862981 0.0
0.014913093033589432 -0.04956274842225535 0.0
0.012453582845446887 -0.024085942226101602 0.0
0.01221544874388698 -0.019538674935742757 0.0
0.023383752094525794 -0.03310285566365652 0.0
0.014830612880822174 -0.01612667963958229 0.0
0.013559043331146528 -0.04180595513839306 0.0
0.014459849075946388 -0.04770818012990057 0.0
0.013270060433521757 -0.03804612942357983 0.0
0.01846504093656227 -0.03832571053795703 0.0
0.01878261135849199 -0.03416806029529273 0.0
0.017767451363599737 -0.045386075875940554 0.0
0.017624502529973166 -0.050601811256445056 0.0
0.019202361664719197 -0.009807910027864386 0.0
0.017974245014101047 -0.050170381350261826 0.0
0.019541118606861346 -0.009470964029734614 0.0
0.011868992974034523 -0.010072666332012486 0.0
0.015464863571680889 -0.050907038920257455 0.0
0.019821272007624964 -0.019275146996136965 0.0
0.016543992313946092 -0.051335829152603846 0.0
0.017233838362871706 -0.0479417660986315 0.0
0.018632800893197313 -0.029154652922116706 0.0
0.01586078620813466 -0.05120483238659698 0.0
0.016274761591630982 -0.05142555392961563 0.0
0.02444547379364305 -0.02541753414024321 0.0
0.007090342942140488 -0.008086420352999276 0.0
0.02041502672670039 -0.04605328691485821 0.0
0.015220862554914777 -0.05125255267235994 0.0
0.018956906441136616 -0.04909201481316715 0.0
0.016088794755687922 -0.051523457487941224 0.0
0.012181807407376542 -0.00853765963050489 0.0
0.01292861788606382 -0.03054852553496487 0.0
0.012525543469552126 -0.025429355496201827 0.0
0.013321102449334404 -0.0370487868671966 0.0
0.01441533796437041 -0.047160829989117733 0.0
0.013108669657596658 -0.03271019567498656 0.0
0.014052279694605204 -0.04439432319821398 0.0
0.0176745742044579 -0.041999110987240865 0.0
0.018503496958991346 -0.023957649622424172 0.0
0.017912356142105915 -0.038394888501642126 0.0
0.01705689734776651 -0.04789356027333219 0.0
0.016488730435275326 -0.05095218168998293 0.0
0.015602990313853506 -0.05137391299800524 0.0
0.00962567903558571 -0.04044052777266054 0.0
0.008875009397453892 -0.03652385106675174 0.0
0.011490513699168642 -0.04681782974045868 0.0
0.025349944500110806 -0.021200581223008243 0.0
0.02302931636557878 -0.03955284282565192 0.0
0.02050582635633587 -0.046213187277826015 0.0
0.023435092670642768 -0.03565540571154616 0.0
0.01677773015342333 -0.04971481125037105 0.0
0.014382992713900658 -0.0507061797644918 0.0
0.0200369774966045 -0.01994534171207364 0.0
0.018547877928537414 -0.02381764594900744 0.0
0.01268612790706611 -0.04873820100081761 0.0
0.00653618466523706 -0.014525895952233912 0.0
0.025871122175266964 -0.014032895725438485 0.0
0.0069869435368217535 -0.02659990597707263 0.0
0.016096357503074487 -0.051394698491029164 0.0
0.01573349178935285 -0.05136104984467405 0.0
0.016721671481356733 -0.05060912336109559 0.0
0.02147308976360341 -0.04266023614211321 0.0
0.02423853309427078 -0.030250496582297202 0.0
0.015648257753775707 -0.051371151733630264 0.0
0.006894963800764835 -0.02399185187812182 0.0
0.026140375589891997 -0.014152451797978525 0.0
0.025993831292989152 -0.009228287515574895 0.0
0.02522873122898453 -0.021217000624589952 0.0
0.010092394153896348 -0.04125021693766924 0.0
0.010781035613930895 -0.044499320513090856 0.0
0.011911451210980552 -0.01473872562719182 0.0
0.0061085939159247985 -0.01984021102799694 0.0
0.02074714196696004 -0.026148270787971984 0.0
0.010613784154417005 -0.04487528815842452 0.0
0.013845620984155949 -0.039822566422719904 0.0
0.01456127340969848 -0.04640499857442802 0.0
0.013652890254983618 -0.03579668551465272 0.0
0.0056521755841838625 -0.01319651835946836 0.0
0.024507999124917024 -0.03064491343896802 0.0
0.014832944312245466 -0.0486460731141796 0.0
0.01899906222425796 -0.04341402332621811 0.0
0.017832329803664993 -0.04865091783309539 0.0
0.01954741513546176 -0.03986210380663123 0.0
0.020785552899707686 -0.026142239155705016 0.0
0.017649533029174918 -0.05079961268625699 0.0
0.013343006518540219 -0.027261841024007187 0.0
0.022099302992128086 -0.04220988020241938 0.0
0.0230231490015937 -0.038708979335228676 0.0
0.019812267741744268 -0.04795083081396541 0.0
0.02205721759040033 -0.014907192011732047 0.0
0.013414404209648647 -0.014397831477214157 0.0
0.013921784333028382 -0.05032033450267391 0.0
0.017787354255727743 -0.04876109681925009 0.0
0.008415256989610032 -0.03817944128858748 0.0
0.007669137073370701 -0.03398634757944652 0.0
0.017360372981978206 -0.05029775378199138 0.0
0.013062619384062607 -0.02295950177735803 0.0
0.02154322522537556 -0.03211736705080571 0.0
0.018203814683682568 -0.012936133487306057 0.0
0.01854094578601936 -0.04993946815292657 0.0
0.02251186988174553 -0.00764289614129879 0.0
0.011845180580845223 -0.047473608879221384 0.0
0.006937229550928098 -0.029544989618999276 0.0
0.016911953454080576 -0.051021648454616035 0.0
0.012575673961406858 -0.04884336898199725 0.0
0.01824222551409893 -0.04682376772783102 0.0
0.02401463879394505 -0.035768022474442426 0.0
0.01595651539068132 -0.05155971834486933 0.0
0.016479446470733464 -0.008514908769592981 0.0
0.01489687157732102 -0.05052242740079708 0.0
0.01565865854143995 -0.049796800861713224 0.0
0.014898461615510863 -0.029253260066520438 0.0
0.015217232610682934 -0.042038608037044164 0.0
0.014959484974322859 -0.03388019269871553 0.0
0.01530095397257683 -0.045213738734682284 0.0
0.006099741582810869 -0.02058701405244604 0.0
0.016917237605750104 -0.008330913840186764 0.0
0.01996308897860044 -0.04789648651749397 0.0
0.016007783584408058 -0.051560751402409614 0.0
0.015488599815813582 -0.05136393882935493 0.0
0.01259798077509847 -0.011300062650879744 0.0
0.0258872636601242 -0.024020047223208996 0.0
0.020210882133309974 -0.03194000032656387 0.0
0.020206130999524813 -0.036110270373978126 0.0
0.01881195621432587 -0.04392240458742092 0.0
0.01261896137349907 -0.040158909242910684 0.0
0.0130572151219084 -0.04363274291510012 0.0
0.014316786616827018 -0.04891246442283313 0.0
0.007271340296149853 -0.03389652602130988 0.0
0.0066907191452603544 -0.029266302512132834 0.0
0.013363631987570401 -0.047080954310331706 0.0
0.011518067701771035 -0.037080636640157164 0.0
0.011987533616309009 -0.04095044480455549 0.0
0.01839545448599491 -0.031644389475222114 0.0
0.017878776031614012 -0.013576399162106748 0.0
0.009527814367486722 -0.008632121757113595 0.0
0.02200643054995704 -0.007418902710739066 0.0
0.016733800839118847 -0.04518133823634578 0.0
0.017156208099303554 -0.034068285503063754 0.0
0.01643507030797539 -0.04970910465519759 0.0
0.016953683070111067 -0.04198156785170594 0.0
0.017315676648385077 -0.029043792509695934 0.0
0.024739050007395808 -0.02813710386408724 0.0
0.009612046110129028 -0.0065269300785567854 0.0
0.020215597895417766 -0.039310884405350556 0.0
0.018922488714468527 -0.046039029597891995 0.0
0.020755900499597954 -0.035267735922338735 0.0
0.01501469599766463 -0.03825805267049144 0.0
0.015405646102210903 -0.04534825323174542 0.0
0.014961509089930738 -0.034021791883397094 0.0
0.017396952830861106 -0.05093322985321334 0.0
0.01546253784961638 -0.047946847156893894 0.0
0.011264487797409066 -0.035709517173895026 0.0
0.010903842210265066 -0.03122846123296218 0.0
0.018877691469905193 -0.04956840603975322 0.0
0.01639895544839611 -0.05137982130782697 0.0
0.013397805991342483 -0.02158204650090251 0.0
0.014902884987697054 -0.02381588695029787 0.0
0.014693004521655657 -0.01852902497730006 0.0
0.014176157563347155 -0.04944800502216847 0.0
0.014971177837135573 -0.02908931574907126 0.0
0.008538331615284108 -0.038203205553561576 0.0
0.009429945622065415 -0.04190608672146183 0.0
0.016055538071628912 -0.05141029725553167 0.0
0.024103487476772177 -0.033594282445949024 0.0
0.02118463587025412 -0.044922609902177876 0.0
0.012398140260454715 -0.04499159424240207 0.0
0.011794498456544624 -0.04172754355023232 0.0
0.010240499278965063 -0.02460781566855675 0.0
0.02682108508404183 -0.006784168761128964 0.0
0.005608083457023883 -0.00889380159737017 0.0
0.016866734788942257 -0.018238362389392096 0.0
0.016657598150275094 -0.05047163660872422 0.0
0.015671337314665915 -0.049778045984638294 0.0
0.015345916657962278 -0.0503340735517591 0.0
0.014115810110020471 -0.008584740566572066 0.0
0.01439791806842719 -0.05084113116703699 0.0
0.026284821434271795 -0.018299623450087232 0.0
0.0151953989519918 -0.023890387399968332 0.0
0.02102299004185954 -0.012491655540044768 0.0
0.014629270572747863 -0.05014085186383994 0.0
0.015420557803931095 -0.04205666099574525 0.0
0.015628868075815417 -0.047960641109708387 0.0
0.01534662725499826 -0.03848582421581994 0.0
0.01036357672081525 -0.021962059014617324 0.0
0.010566409609188261 -0.03058427193980402 0.0
0.010281172997127178 -0.0256545320318064 0.0
0.013298602120934307 -0.04713349776554174 0.0
0.012625027865780751 -0.04432448645343711 0.0
0.016224006537664145 -0.0509575061769516 0.0
0.012922017485790343 -0.049547368954024874 0.0
0.02206841412519474 -0.02053775254831425 0.0
0.02228617772658454 -0.029209477839210556 0.0
0.020392765056418294 -0.04202892801577639 0.0
0.015493948699981792 -0.05048464244957101 0.0
0.017937081741097507 -0.04971045864167595 0.0
0.0053176435759336735 -0.024058867338279125 0.0
0.00981030791746974 -0.020097491141595918 0.0
0.010292631356958123 -0.017313629712635795 0.0
0.018537906090493172 -0.0263308220982178 0.0
0.017582000478231698 -0.04350161154724816 0.0
0.01794069868812873 -0.04009014415315516 0.0
0.016982065480998013 -0.04878027947422661 0.0
0.019657935296395937 -0.045361972455931134 0.0
0.014524242153816468 -0.043676233450365476 0.0
0.015178291694426242 -0.0489279854049593 0.0
0.014333984788719641 -0.04025350594936083 0.0
0.026146492311076096 -0.011613341008065969 0.0
0.015901510519000128 -0.05104286080024487 0.0
0.018537699179982027 -0.040309679232737726 0.0
0.018780551699193945 -0.03670883330174758 0.0
0.017634656595594763 -0.046929611607241364 0.0
0.017141733346607988 -0.04658019104861356 0.0
0.011770576413242783 -0.0477423164846431 0.0
0.016310582651189145 -0.05143883800994053 0.0
0.017485826182246228 -0.04363896488256473 0.0
0.01819060186256704 -0.031474717093137955 0.0
0.018123733346978085 -0.021303425251372656 0.0
0.021265771831037027 -0.04480837842199141 0.0
0.009974852442056875 -0.011833671598988868 0.0
0.021593295678599713 -0.011207091233126933 0.0
0.023546773972378636 -0.03793678133913829 0.0
0.008833394962807543 -0.019365114484702073 0.0
0.014839412136397747 -0.05089701593349603 0.0
0.02185950567025363 -0.016947145379895542 0.0
0.021219172292434706 -0.017230479656570295 0.0
0.01682743922222893 -0.04892574418765882 0.0