<VTKFile type="UnstructuredGrid"  version="0.1">
<UnstructuredGrid>
<Piece NumberOfPoints="713" NumberOfCells="1304">
<Points>
<DataArray type="Float64" NumberOfComponents="3" format="ascii">
0.0 0.0 0.0
10.0 0.0 0.0
10.0 2.0 0.0
5.0 2.0 0.0
0.0 2.0 0.0
0.199999999999856 0.0 0.0
0.3999999999996677 0.0 0.0
0.5999999999994683 0.0 0.0
0.7999999999993286 0.0 0.0
0.9999999999991888 0.0 0.0
1.199999999999033 0.0 0.0
1.399999999998576 0.0 0.0
1.599999999997992 0.0 0.0
1.799999999997408 0.0 0.0
1.999999999996825 0.0 0.0
2.199999999996241 0.0 0.0
2.399999999995657 0.0 0.0
2.599999999995073 0.0 0.0
2.79999999999449 0.0 0.0
2.999999999993906 0.0 0.0
3.199999999993322 0.0 0.0
3.399999999992738 0.0 0.0
3.599999999992154 0.0 0.0
3.799999999991571 0.0 0.0
3.999999999991022 0.0 0.0
4.199999999991187 0.0 0.0
4.399999999991491 0.0 0.0
4.599999999991795 0.0 0.0
4.799999999992099 0.0 0.0
4.999999999992403 0.0 0.0
5.199999999992706 0.0 0.0
5.39999999999301 0.0 0.0
5.599999999993313 0.0 0.0
5.799999999993618 0.0 0.0
5.999999999993922 0.0 0.0
6.199999999994227 0.0 0.0
6.39999999999453 0.0 0.0
6.599999999994833 0.0 0.0
6.799999999995138 0.0 0.0
6.999999999995442 0.0 0.0
7.199999999995747 0.0 0.0
7.39999999999605 0.0 0.0
7.599999999996353 0.0 0.0
7.799999999996658 0.0 0.0
7.999999999996962 0.0 0.0
8.199999999997265 0.0 0.0
8.399999999997569 0.0 0.0
8.599999999997873 0.0 0.0
8.799999999998176 0.0 0.0
8.99999999999848 0.0 0.0
9.199999999998786 0.0 0.0
9.399999999999089 0.0 0.0
9.599999999999392 0.0 0.0
9.799999999999697 0.0 0.0
10.0 0.1999999999996293 0.0
10.0 0.3999999999991157 0.0
10.0 0.5999999999985328 0.0
10.0 0.7999999999979498 0.0
10.0 0.9999999999973885 0.0
10.0 1.199999999997894 0.0
10.0 1.39999999999842 0.0
10.0 1.599999999998947 0.0
10.0 1.799999999999474 0.0
9.799999999999999 2.0 0.0
9.6 2.0 0.0
9.399999999999999 2.0 0.0
9.2 2.0 0.0
8.999999999999998 2.0 0.0
8.799999999999999 2.0 0.0
8.599999999999998 2.0 0.0
8.399999999999999 2.0 0.0
8.2 2.0 0.0
7.999999999999998 2.0 0.0
7.799999999999999 2.0 0.0
7.599999999999999 2.0 0.0
7.399999999999999 2.0 0.0
7.199999999999999 2.0 0.0
7.0 2.0 0.0
6.799999999999999 2.0 0.0
6.6 2.0 0.0
6.399999999999999 2.0 0.0
6.199999999999999 2.0 0.0
5.999999999999999 2.0 0.0
5.8 2.0 0.0
5.6 2.0 0.0
5.399999999999999 2.0 0.0
5.199999999999999 2.0 0.0
4.8 2.0 0.0
4.6 2.0 0.0
4.399999999999999 2.0 0.0
4.199999999999998 2.0 0.0
3.999999999999999 2.0 0.0
3.799999999999999 2.0 0.0
3.599999999999999 2.0 0.0
3.399999999999999 2.0 0.0
3.199999999999998 2.0 0.0
2.999999999999999 2.0 0.0
2.799999999999999 2.0 0.0
2.599999999999999 2.0 0.0
2.399999999999999 2.0 0.0
2.199999999999999 2.0 0.0
2.0 2.0 0.0
1.799999999999999 2.0 0.0
1.599999999999999 2.0 0.0
1.399999999999999 2.0 0.0
1.199999999999999 2.0 0.0
0.9999999999999991 2.0 0.0
0.7999999999999998 2.0 0.0
0.5999999999999996 2.0 0.0
0.3999999999999995 2.0 0.0
0.1999999999999993 2.0 0.0
0.0 1.799999999999167 0.0
0.0 1.6 0.0
0.0 1.400000000001387 0.0
0.0 1.200000000002774 0.0
0.0 1.000000000004117 0.0
0.0 0.8000000000033287 0.0
0.0 0.6000000000024965 0.0
0.0 0.4000000000016644 0.0
0.0 0.200000000000832 0.0
1.499207686858938 0.9671416246672391 0.0
2.690335006295381 0.9619521672166851 0.0
3.892537609238439 1.007271393615351 0.0
8.916602958236062 0.9848120741100651 0.0
7.714518201951718 1.024234589865042 0.0
6.514518201951581 1.024234589865268 0.0
5.299999999999998 1.000000000000349 0.0
0.7620577975594133 1.201991596673393 0.0
4.61755859746166 1.240410629378135 0.0
2.099999999996533 0.6749999999988996 0.0
3.289480163184942 0.6802242156869155 0.0
8.299999999999976 1.325000000000064 0.0
7.110519836808121 1.319775784312006 0.0
5.893184537067197 1.292851873188582 0.0
3.268568008578649 1.341967835735878 0.0
2.118368267083699 1.321829331075689 0.0
5.930896443153832 0.6493414313150682 0.0
7.106926174231782 0.6329785805444448 0.0
8.306926174233002 0.6329785805444098 0.0
4.427960725065653 0.6389803625370323 0.0
0.9828791719046732 0.6520555711814596 0.0
9.383333333333349 0.6166666666667164 0.0
9.383333333333326 1.383333333333367 0.0
4.974443803660211 0.5526668589022862 0.0
1.248084267804327 1.464555585366204 0.0
4.139486343919472 1.468449088519687 0.0
5.077806736162063 1.478342020848787 0.0
1.629462398503482 0.5098631373669138 0.0
2.579462070540726 0.5133714280880515 0.0
3.770778974032556 0.5099482598296803 0.0
8.764748922637567 1.526880805960684 0.0
7.820537929455645 1.486628571911716 0.0
6.632254923791462 1.492045881343967 0.0
2.796478414430566 1.477149214423874 0.0
6.403521585563812 0.5228507855762514 0.0
7.603521585564883 0.5228507855756581 0.0
8.783559188644787 0.5066440811355862 0.0
0.5060338924245764 0.5082251307884346 0.0
5.451633334958382 0.4799315318847731 0.0
1.683269995544083 1.547372422998862 0.0
0.448590368789599 1.551409631210402 0.0
5.545526974704655 1.582008455135239 0.0
3.666056976948354 1.56999765613834 0.0
0.4385739326402744 0.9352922270094057 0.0
9.58170539854767 0.9922137522194456 0.0
4.93200119575972 0.9247090920592975 0.0
6.20679636316332 1.642443126922768 0.0
7.418963044745086 1.587405313446662 0.0
2.98103695524982 0.412594686552066 0.0
2.420975602092416 1.592770352831584 0.0
7.97902439790374 0.4072296471687943 0.0
6.779024397902082 0.4072296471687297 0.0
1.130444757308209 0.9859238872709168 0.0
0.8901814758011342 1.60566856081121 0.0
4.263670373274499 0.9915754392410991 0.0
3.096698167273431 1.009056907826855 0.0
6.088506433998166 0.9857489435828969 0.0
1.902225037409936 1.003483800311746 0.0
7.288506433998439 0.9857489435828686 0.0
8.498964973312972 1.005823551167602 0.0
2.307571737417198 1.008136792450924 0.0
8.100397971125554 1.000138280273345 0.0
6.900397971125225 1.000138280273792 0.0
3.499307350770321 0.9996496628144824 0.0
5.703656022566558 0.9885479657552226 0.0
4.719420624357892 1.622286409566126 0.0
4.099803549896894 0.3600308081356619 0.0
1.286100671532495 0.3637431910670685 0.0
9.120549139677793 1.655065205594329 0.0
9.11726214008418 0.3400668903113251 0.0
4.642568097328033 0.3514924793220939 0.0
9.630437629189052 0.3309104953729904 0.0
9.674493769554315 1.668196579944218 0.0
1.936458797611609 0.3337070483410596 0.0
3.461817573918652 0.3447876019040473 0.0
8.440152788772068 1.649667667046397 0.0
6.973083089482548 1.643748677366674 0.0
3.126874515006838 1.659115470008545 0.0
6.070607878384977 0.3410183041038941 0.0
7.255014454789089 0.32792256737713 0.0
8.462493615948901 0.3368393217476116 0.0
9.236261261261264 0.9276047786917867 0.0
5.885444386845415 1.667751020273455 0.0
0.8062340689595878 0.3261579034781319 0.0
2.29463843780282 0.308358158429197 0.0
8.10536156219338 1.691641841570632 0.0
4.041916759198581 0.7211683801597477 0.0
1.324377365289917 0.710525897087282 0.0
9.023167917315867 1.292262965009952 0.0
2.044244009166302 1.693807225416931 0.0
0.7675765545556328 0.8969765944392112 0.0
2.86965991063896 0.7069213925303978 0.0
6.330340089355722 1.293078607468788 0.0
7.530340089355831 1.29307860746885 0.0
2.509347777214458 1.27231292939881 0.0
7.890652222779963 0.7276870706009825 0.0
6.690652222780154 0.7276870706013264 0.0
4.380959112578968 1.65866292149053 0.0
0.3278422400819535 1.233362752678148 0.0
5.754468991464942 0.3469215055361071 0.0
9.69195804401614 0.7000195364707393 0.0
9.691250997975434 1.303243780084337 0.0
5.54324561063747 1.237401556904767 0.0
9.044596057577811 0.6843248705785732 0.0
5.208929198448351 0.3519433027337513 0.0
3.708880196230617 1.249762029554333 0.0
1.713349558540635 1.234899745098077 0.0
4.586522821995393 0.9261740906803194 0.0
5.241145838821565 0.7007005766013242 0.0
1.434457446926135 1.701926055218157 0.0
0.2821921707428039 0.3393165318407161 0.0
3.42846431357046 1.714274134409306 0.0
5.26283485467567 1.710141275531951 0.0
3.966530105129177 1.718376080180638 0.0
4.891301048299285 1.259923533724591 0.0
0.2787500712946937 0.6906723798523376 0.0
1.822166578929051 0.7301892210727335 0.0
8.593276160688786 1.287322908694633 0.0
2.386017956680413 0.7288816957021155 0.0
3.576911792171353 0.7225526638483954 0.0
8.013982043315597 1.271118304297217 0.0
6.82303669320588 1.277631295759485 0.0
2.891837633696712 1.215141906356511 0.0
8.708162366297856 0.7848580936429009 0.0
7.496736072543097 0.7897651325976158 0.0
6.296736072542775 0.7897651325982009 0.0
5.523181420933933 0.7588744249744506 0.0
4.725538117155759 0.6529070682798582 0.0
2.736307197014292 0.273961667653487 0.0
7.663692802980817 1.726038332346062 0.0
6.446842959287713 1.783714797320288 0.0
1.126188383272983 1.743715177525389 0.0
2.64757240694847 1.787239829472812 0.0
6.546646507559373 0.2589894635657943 0.0
7.746646507561152 0.2589894635657218 0.0
4.079302268890254 1.221431431691139 0.0
4.433746883463333 0.2983726043497702 0.0
1.032697650548726 1.318076986199429 0.0
1.309492735411376 1.208980965369829 0.0
3.896105387998365 0.2579746081881307 0.0
9.378751775005455 1.725996478164223 0.0
9.3965279828929 0.2649862374471925 0.0
1.515757555362918 0.2603060454608533 0.0
4.959097093232828 1.726144293543605 0.0
4.912501341257775 0.2529154558175828 0.0
4.342421824442713 1.285376618065631 0.0
7.023506283123107 0.293611963231815 0.0
8.215829626877609 0.2682061590942965 0.0
5.28145265730745 1.291130016052329 0.0
8.693992162747364 1.744100892812201 0.0
0.6256567126095668 1.775064851453201 0.0
0.2724967459749605 1.756941612685287 0.0
8.90781713264278 0.2741674349222226 0.0
7.184202236567151 1.709454269177068 0.0
3.212962614055919 0.2641656831057426 0.0
0.6761590188374282 0.6746441670621973 0.0
1.020489328989316 0.2487299689497893 0.0
1.485017749467193 1.402133856149482 0.0
6.734223224917944 1.790518105434539 0.0
2.657549589911705 0.7636227781082678 0.0
6.542590471647475 1.237213715285722 0.0
7.742745187066703 1.235538225115726 0.0
0.5794341726414672 0.2480285055479751 0.0
1.842901067642841 1.760146518280044 0.0
3.84389577648662 0.7524680119172447 0.0
3.061589173628368 1.407936939342627 0.0
6.144447294584154 0.5911674363009913 0.0
7.344447294585433 0.5911674362995804 0.0
8.544447294586682 0.5911674362982269 0.0
5.491507940982565 0.1734458797927824 0.0
[...]
<PointData Vectors="fields">
<DataArray type="Float64" Name="U" NumberOfComponents="3" format="ascii">
0.0 0.0 0.0
0.03789569187752171 0.0 0.0
0.003288513178049345 -0.006847106553150642 0.0
0.01882136592172283 -0.0606697643861211 0.0
0.03474106356406114 -0.006522948277437204 0.0
0.000396790563373506 -0.007209582784928004 0.0
0.0011775102771411268 -0.011862194771314543 0.0
0.0018834106571092388 -0.015986123298694328 0.0
0.0024837179837482837 -0.01961302627476769 0.0
0.0030176705867345603 -0.023075838495635475 0.0
0.0035400043047345417 -0.026402689125100534 0.0
0.00406795499871805 -0.02960366401972604 0.0
0.0046455708381427825 -0.03269607286823989 0.0
0.005237769012688815 -0.03568016736402315 0.0
0.0058695855882038555 -0.03852351110074417 0.0
0.00652799045546413 -0.0412262687530904 0.0
0.0072429809935639754 -0.04379166116379744 0.0
0.007971195613294405 -0.046198233505099745 0.0
0.008775880012531406 -0.04844708580997381 0.0
0.009581103740525995 -0.05052770383192399 0.0
0.010453781813798448 -0.052431600038439226 0.0
0.01132922628093948 -0.054141719829166976 0.0
0.012248310598146583 -0.05567068747603356 0.0
0.013170972090987769 -0.056967118261891304 0.0
0.01410182161757385 -0.05812747967001038 0.0
0.015067433419414099 -0.0590570199273628 0.0
0.016022453527397347 -0.05977352443730852 0.0
0.01700766083381737 -0.06029021303205205 0.0
0.017979554121349592 -0.060584015247047984 0.0
0.018994902643518413 -0.060675985315534114 0.0
0.019984632022480894 -0.060555239754081225 0.0
0.020975049411726912 -0.06021699283974289 0.0
0.021959664904747638 -0.05967207994044631 0.0
0.02292777096799418 -0.058914468174233056 0.0
0.02386332135755951 -0.0579615510407825 0.0
0.024810875782779122 -0.05682201880088837 0.0
0.025699798816664322 -0.05543444694389395 0.0
0.026586005817260484 -0.0539227329790288 0.0
0.027426674307059362 -0.05222050044719497 0.0
0.02826259042458258 -0.05031304314723312 0.0
0.029049150560487028 -0.04823946207288227 0.0
0.029806309515506158 -0.046009620418263286 0.0
0.030509583561212153 -0.04358617792219182 0.0
0.03119777699031379 -0.041068568971908095 0.0
0.03183395243744291 -0.038401942638256706 0.0
0.032448117796199584 -0.035589516785307876 0.0
0.03301491745821999 -0.032642456531716574 0.0
0.033559150254931655 -0.029591921734193713 0.0
0.03405734318741814 -0.02642673702022437 0.0
0.03456621314980299 -0.023141882675962823 0.0
0.03506420180363363 -0.01974163136032926 0.0
0.03561611364361574 -0.01615321931101301 0.0
0.03622531896246796 -0.012264676706575977 0.0
0.037166644343276226 -0.007648903870600658 0.0
0.032075367336999644 -0.0027004443566959963 0.0
0.028294629669608516 -0.0041826431717898235 0.0
0.02485700679528759 -0.005126093561179013 0.0
0.02169852868775071 -0.005839039313643065 0.0
0.01863218003224176 -0.006286430900312312 0.0
0.015620292559009773 -0.006577146556105107 0.0
0.012610267641890202 -0.006752461619111394 0.0
0.009555376969564402 -0.006830845255428981 0.0
0.006446740820557843 -0.006846862795233756 0.0
0.0032862552374688376 -0.01001669100111302 0.0
0.003294821720864808 -0.013226520386660248 0.0
0.003353100816214995 -0.01648497858340465 0.0
0.003487395820848853 -0.01977669547243508 0.0
0.003709666221531501 -0.02305577600555782 0.0
0.004011793282611253 -0.02627963732216638 0.0
0.004396734095435607 -0.029461623336961038 0.0
0.0048476615042983935 -0.03253248496314621 0.0
0.005365488378677534 -0.03549099753571305 0.0
0.0059554768356441 -0.03833317384978993 0.0
0.00657212946444562 -0.04102991307353788 0.0
0.007265652959617152 -0.043586852254952214 0.0
0.007966433416450836 -0.04598922004482163 0.0
0.00873323499008375 -0.04822922378902451 0.0
0.0095221872620715 -0.05030783888546506 0.0
0.010343111697940341 -0.05221058372999301 0.0
0.011174552455523835 -0.053892134034308696 0.0
0.012054504571023113 -0.05546830348289409 0.0
0.012961488620790142 -0.05680586211521917 0.0
0.013871328113470844 -0.05795650483187502 0.0
0.01483003071840401 -0.05891956539910425 0.0
0.015826916612747766 -0.059669115750299845 0.0
0.016796201579878732 -0.060210714585588986 0.0
0.017814558097884584 -0.060547867707869414 0.0
0.019852124101004287 -0.06056295291412992 0.0
0.020837596897748875 -0.060266247255997205 0.0
0.02181330534432614 -0.059762287822806036 0.0
0.022809430150747496 -0.05906105567488661 0.0
0.02379355805800195 -0.05812417126469184 0.0
0.02477094189353657 -0.05698775216685576 0.0
0.02568206833940359 -0.05566255216869909 0.0
0.026599742276233213 -0.05413770244332298 0.0
0.027483503479586044 -0.052431596494500694 0.0
0.028349519899494142 -0.05053314034794017 0.0
0.029152867189423663 -0.04841388477915161 0.0
0.02994497811966643 -0.04619392563959102 0.0
0.03067495396220527 -0.04376782488966589 0.0
0.031358458246428654 -0.041186103919663875 0.0
0.0320178074859015 -0.03845565016200417 0.0
0.032614942043363966 -0.035583822666094146 0.0
0.03313836466361608 -0.03259130116819323 0.0
0.03361977795432163 -0.029470665874539167 0.0
0.03401023173106383 -0.026258905362686616 0.0
0.034322669915698364 -0.022966309242080145 0.0
0.034539238358717216 -0.019642486300480867 0.0
0.03466820858271383 -0.01630205237154285 0.0
0.034731191303220825 -0.012997448200391625 0.0
0.03474603077259618 -0.009735296245097074 0.0
0.031536520786237296 -0.006524674799638473 0.0
0.028381867140923004 -0.006509137005469699 0.0
0.02528780300165191 -0.006435067953005828 0.0
0.02222762819551917 -0.00626335622331721 0.0
0.01917894563247818 -0.005945641576863612 0.0
0.016071301455507093 -0.005494090997161805 0.0
0.012865245153321013 -0.0047739106852909005 0.0
0.009401992177190514 -0.0037820512217418643 0.0
0.0052952015583122855 -0.0021324826829333264 0.0
0.018517743956432575 -0.031330501605853385 0.0
0.018549041546732984 -0.047609412273466045 0.0
0.01897171031924709 -0.05800513949140141 0.0
0.018966726547564414 -0.024598935588506406 0.0
0.01860929311797814 -0.04248735729399474 0.0
0.018717859711449514 -0.055038756688216554 0.0
0.018899622937033508 -0.06089624292780909 0.0
0.022199739264714698 -0.01903377718449665 0.0
0.01935038769229942 -0.060771326226201516 0.0
0.014911139904065172 -0.04016690877248658 0.0
0.016417582496209056 -0.05360656892268056 0.0
0.014521751176606292 -0.034273956878733525 0.0
0.015837823285775966 -0.04952129582764563 0.0
0.01760613785656137 -0.05893201883984787 0.0
0.021692223318968785 -0.05342253955845778 0.0
0.022901660128098227 -0.04038214155813716 0.0
0.020490789588549812 -0.058734281175447184 0.0
0.022396797236131163 -0.049564446095922456 0.0
0.023810465408656153 -0.034246335071139375 0.0
0.017956227398011962 -0.06027925601684496 0.0
0.0137917722775194 -0.022871747031212687 0.0
0.024520742562773503 -0.016538869224685445 0.0
0.01291404215217802 -0.016746497062167465 0.0
0.018882791559426668 -0.06105851936167299 0.0
0.025755742968049465 -0.02719070345228617 0.0
0.02085812666996165 -0.05915910094117206 0.0
0.01867422621513673 -0.06101723105810907 0.0
0.01216705049568136 -0.0333370589860315 0.0
0.013684170876482188 -0.0462383929039956 0.0
0.01610433412855645 -0.05715698405294585 0.0
0.011231202208520894 -0.026989013950754242 0.0
0.013012412813930188 -0.04100283707166839 0.0
0.015105110107094515 -0.05397538757253403 0.0
0.02370478293695762 -0.04870126740894942 0.0
0.02208887522245167 -0.0557707572990355 0.0
0.02431524322136127 -0.043825865062396635 0.0
0.026060086317060728 -0.02682517292288856 0.0
0.011396286362747348 -0.014241792538945024 0.0
0.02009046797433615 -0.06045171409847781 0.0
0.026417108240104514 -0.03403542113408678 0.0
0.027595926712094824 -0.01377039429709629 0.0
0.017287847267636974 -0.06016411098809564 0.0
0.02255062160676464 -0.05643178879144114 0.0
0.018261001970144953 -0.013264172806347195 0.0
0.018677534416245464 -0.013186750484803767 0.0
0.018890950582935898 -0.061167640700548254 0.0
0.015120398385186046 -0.05702750740316657 0.0
0.012575613268223554 -0.04599981338606524 0.0
0.013516452051457966 -0.05060448169409476 0.0
0.02570369853787703 -0.04426496136757216 0.0
0.02637437746869918 -0.038877718448437126 0.0
0.023816758803287347 -0.052664978327957496 0.0
0.018849249369222873 -0.025334136306225066 0.0
0.02819235824101766 -0.021205447595448536 0.0
0.018901299156856403 -0.05978311991898143 0.0
0.019025574844336722 -0.051882385821887 0.0
0.018968612728954497 -0.05793519209364075 0.0
0.018991467525786655 -0.03740255839831195 0.0
0.019040262358260836 -0.047629317793837 0.0
0.01875633788351739 -0.031312206719407085 0.0
0.01903410058412007 -0.042950732003774174 0.0
0.018874947865413168 -0.03724480685577387 0.0
0.01888882713533977 -0.0516754106567389 0.0
0.01893941579190618 -0.055376606613822744 0.0
0.01892554544593553 -0.059784935119953454 0.0
0.0197240924965105 -0.060796665498221325 0.0
0.01620198396645772 -0.05890486100409064 0.0
0.009527267654517007 -0.0279390821618399 0.0
0.008982234340122871 -0.02113768902321938 0.0
0.029027474068420232 -0.021261875012515963 0.0
0.01783489926693517 -0.060658411014478185 0.0
0.02938909238350858 -0.011721803677125952 0.0
0.008517239636721335 -0.012005693093602735 0.0
0.01024647527907425 -0.03781004630489781 0.0
0.014219555002709994 -0.05490820873254177 0.0
0.009877617171687093 -0.03206434132427032 0.0
0.01302424835142748 -0.05080849900726115 0.0
0.024681528998400034 -0.05199655208236145 0.0
0.02234471959034697 -0.05784832220868931 0.0
0.025743641231977532 -0.04785190422183987 0.0
0.028182850273341647 -0.03185157626121303 0.0
0.01972532539476393 -0.019180504203759614 0.0
0.015959239098520196 -0.058801792014122556 0.0
0.008319810852573342 -0.019816285759590376 0.0
0.01071684891633658 -0.04264269274798946 0.0
0.00988670510433371 -0.03700555317467298 0.0
0.017676015140739874 -0.058776612406022194 0.0
0.014801598544037736 -0.02856983027474367 0.0
0.014440223202518122 -0.022792369715378707 0.0
0.027760613581345916 -0.03924636299069969 0.0
0.017605933122937567 -0.01910393685818924 0.0
0.01612224422056044 -0.049564563562997384 0.0
0.017028665483078964 -0.05636981666452115 0.0
0.01565374779802673 -0.04477041950093649 0.0
0.021933861823132065 -0.045442132124003165 0.0
0.022224152499502155 -0.04015352060360161 0.0
0.02104395957787264 -0.053560195052376115 0.0
0.020875998530009647 -0.05999416973596711 0.0
0.022781905128828026 -0.01159099854748277 0.0
0.021347174906741366 -0.05937880073427836 0.0
0.023134290215976766 -0.010905342682187538 0.0
0.014040092357952207 -0.011586365636852116 0.0
0.018247573341900268 -0.06030175711318268 0.0
0.023453759233644497 -0.022483095897719692 0.0
0.019617814563797912 -0.06083442404036568 0.0
0.020457589409204516 -0.05684808639197663 0.0
0.02212024310853534 -0.03458062347804728 0.0
0.018782722639161885 -0.06073187543556287 0.0
0.019273972190765345 -0.06095576339393074 0.0
0.02900943228533217 -0.030134154244228634 0.0
0.00841652096716828 -0.009553626391627441 0.0
0.024248948339360057 -0.05458660077419616 0.0
0.01791717931808008 -0.060718640526132066 0.0
0.022491793170313617 -0.058196574644130264 0.0
0.01902721660986783 -0.06109564609951545 0.0
0.014456691046060888 -0.01008449715277172 0.0
0.015378891343495843 -0.0362367205680668 0.0
0.014800276299708547 -0.029777052234486942 0.0
0.01584855858558093 -0.04393112317214045 0.0
0.01710806226132009 -0.05591856142946605 0.0
0.01547822800130361 -0.0384213772123337 0.0
0.01655921433438703 -0.05236520903255677 0.0
0.020997640683315347 -0.04979412328433743 0.0
0.02189111923944407 -0.02803235506612394 0.0
0.021193854763999757 -0.04518665458124478 0.0
0.02019844966679194 -0.05659875826689936 0.0
0.019526706014244014 -0.060360440627332874 0.0
0.01847547872967147 -0.06092457506815087 0.0
0.011480194307833853 -0.04793431524725677 0.0
0.010418785058522883 -0.04294858644689592 0.0
0.013429815149923266 -0.05527684893835148 0.0
0.030080614424490008 -0.02512501473144224 0.0
0.02735407977975372 -0.04687851141225385 0.0
0.024360554773922745 -0.05454960807373618 0.0
0.0277635382847633 -0.041912457352786786 0.0
0.019897942604029842 -0.058958779676712286 0.0
0.017032800417011298 -0.0601199735917219 0.0
0.02377732578158665 -0.023641027723482533 0.0
0.022014569723761084 -0.028245702543930523 0.0
0.015038299082549278 -0.05777879681199135 0.0
0.007713185342847021 -0.0168508843793199 0.0
0.030600922683057898 -0.01628818489187515 0.0
0.008347571509673813 -0.031544335517628516 0.0
0.01899187135836894 -0.060911157578403735 0.0
0.018646626399294985 -0.06087982034479717 0.0
0.01981592710735781 -0.0600215026991448 0.0
0.02547614605713767 -0.050275156331286604 0.0
0.02869657776638812 -0.035488878358289885 0.0
0.018473685098784935 -0.06088344747121993 0.0
0.008121057216844106 -0.028064964559959934 0.0
0.0310167879762557 -0.016749875641083347 0.0
0.03084145536662572 -0.010900553069548825 0.0
0.02985456482775651 -0.024776626797968153 0.0
0.011830647148937938 -0.04858708125553243 0.0
0.012824572593681796 -0.05274461203683768 0.0
0.01414490372392575 -0.017454704688291342 0.0
0.007267739318505462 -0.023516337845127862 0.0
0.024622912057803904 -0.031009482235861734 0.0
0.012406655265519909 -0.052932510675411215 0.0
0.016465525991977904 -0.04721553146992667 0.0
0.017162195346922635 -0.054790413758926404 0.0
0.016118087708361505 -0.042092102898343975 0.0
0.006711558115947767 -0.01562183845398948 0.0
0.02908988002416156 -0.03633180475411942 0.0
0.01759085692070014 -0.057685693578576225 0.0
0.022570524144770704 -0.05146783821046202 0.0
0.02115154823329955 -0.05752020651656405 0.0
0.023150685487176068 -0.04693475554859061 0.0
0.024595666411989733 -0.030621269255851288 0.0
0.020966064769192053 -0.06015118199584745 0.0
0.015860874444753526 -0.03234050614723902 0.0
0.026253851769001933 -0.050026404761799134 0.0
0.027292968453486277 -0.04554945192271012 0.0
0.023550726843354165 -0.05665569676500586 0.0
0.02617135071444073 -0.01764973211119978 0.0
0.015867887072115432 -0.016706610908047755 0.0
0.016329745192489385 -0.0595547270959625 0.0
0.021109606547871588 -0.0578190569442004 0.0
0.010057810247662557 -0.04525420634678229 0.0
0.008999624931871066 -0.03992762560976375 0.0
0.020593962666170123 -0.0595429940579773 0.0
0.015440873611018164 -0.026847943851219566 0.0
0.02557491296535852 -0.03808468856315871 0.0
0.021600556817333364 -0.015308778275391458 0.0
0.021978651299334954 -0.059198624033851635 0.0
0.026706803707896992 -0.009018553955816034 0.0
0.014056634205066218 -0.05627426403945256 0.0
0.008304814521294099 -0.03503400189051928 0.0
0.020022006943401578 -0.06050106807215401 0.0
0.014707270362307241 -0.05773826262994387 0.0
0.021663896073791652 -0.05551558535794849 0.0
0.028515135757095692 -0.04239780429765853 0.0
0.018871473834502234 -0.06113187523314478 0.0
0.01955132852252845 -0.010055599406081653 0.0
0.017540840524146114 -0.05981855862919275 0.0
0.01849001839559165 -0.05892856252393785 0.0
0.01761165714675569 -0.034316571420018246 0.0
0.017970174247048425 -0.049540248796480675 0.0
0.017781223539426478 -0.04018247752455797 0.0
0.018171874909513795 -0.053607950451332695 0.0
0.007186011366095236 -0.024028658843837918 0.0
0.020028509407546233 -0.009545376224658193 0.0
0.023700223133671497 -0.056770909293112626 0.0
0.018951117860840222 -0.061135681084068805 0.0
0.01826353999096782 -0.06086864556825833 0.0
0.014955259818836879 -0.01336617172876833 0.0
0.0306389125895305 -0.028095455793704278 0.0
0.023918507874832896 -0.037503785791774887 0.0
0.023995929788312408 -0.04281585990190185 0.0
0.022292879203231787 -0.051797160349068186 0.0
0.014865365282386788 -0.04728997448082917 0.0
0.015521912467939112 -0.05172831962447913 0.0
0.016841960539237807 -0.057837231710962646 0.0
0.008711597142596346 -0.040184878344388476 0.0
0.00786086305963504 -0.0343205190969537 0.0
0.015699941896256276 -0.05560504219022818 0.0
0.013567212178820873 -0.04361780404368724 0.0
0.014267760943425365 -0.048547151455276244 0.0
0.02184229615043644 -0.03753181923658898 0.0
0.02115912840971121 -0.01574303847223372 0.0
0.011264632361191114 -0.009876171158459764 0.0
0.026053648719634677 -0.008506900399337084 0.0
0.019874494201073206 -0.053569376558562115 0.0
0.020378571739585506 -0.040403965043884826 0.0
0.019448130647001058 -0.058821436290498824 0.0
0.02005336527260224 -0.049471854240197184 0.0
0.02048098156863002 -0.0340676477860251 0.0
0.029360453396089004 -0.033359350233547164 0.0
0.011403838497765826 -0.00769933851664672 0.0
0.024012954124870034 -0.04660440821481443 0.0
0.022445281844634377 -0.0543461725318089 0.0
0.02457346659176072 -0.04145830966051548 0.0
0.01784843964553379 -0.045364228952373596 0.0
0.018189630734231483 -0.05351540283741452 0.0
0.01767997673240275 -0.039981528306010164 0.0
0.02058121154202745 -0.06037407199328235 0.0
0.018346968736097608 -0.056855643649763775 0.0
0.013422855693856994 -0.04234275035399741 0.0
0.012860767089161645 -0.03665842976817833 0.0
0.022442974901376617 -0.0586312996941454 0.0
0.01940072217473495 -0.060927760092773994 0.0
0.01591417357493392 -0.025593210045963256 0.0
0.01769879253169475 -0.028247980898051205 0.0
0.017378977472995074 -0.02159805963918807 0.0
0.016799714644398202 -0.058634728128592176 0.0
0.01778804562219057 -0.03450779200502711 0.0
0.010003484839707416 -0.044946754844545925 0.0
0.011242382416683077 -0.049667375587244926 0.0
0.019006836713084323 -0.060973256419442234 0.0
0.028548325752954067 -0.03946009348051077 0.0
0.025158939826368916 -0.052991401284573726 0.0
0.01473454042634768 -0.05333680879360124 0.0
0.01386639182811051 -0.04916302617110428 0.0
0.012185553099719642 -0.029187979698197697 0.0
0.03171511962016965 -0.007798167536620462 0.0
0.006618022123326132 -0.010182226854142657 0.0
0.020019528971946553 -0.021614364775528902 0.0
0.01972932858269404 -0.05976272317029477 0.0
0.018578128298734543 -0.05903600419547515 0.0
0.018182687731547555 -0.05969664721319593 0.0
0.01670642086748426 -0.00983237862581733 0.0
0.016903553518834484 -0.060196918179361646 0.0
0.031189427327861237 -0.02167715984877712 0.0
0.017969508547120705 -0.02795294880089661 0.0
0.024943262848028423 -0.014779452700547275 0.0
0.017330522708585618 -0.05946113642392847 0.0
0.018324430397672477 -0.04986381426082569 0.0
0.01845563188046782 -0.05668008938131638 0.0
0.018131893230846734 -0.045296069637051455 0.0
0.012321750391114989 -0.026044834922988598 0.0
0.012592378426033462 -0.03627604781601895 0.0
0.012135863951564598 -0.0300417295754104 0.0
0.01578316993091725 -0.05588151399830234 0.0
0.01483912472637581 -0.052278132556258634 0.0
0.0192191901322684 -0.060439190479225434 0.0
0.015308520699047506 -0.05873569681632956 0.0
0.026186506738157388 -0.02434272979388816 0.0
0.02637782646262063 -0.03425801100312879 0.0
0.02417562821597534 -0.04952309948826475 0.0
0.018285112015614956 -0.059777505483182586 0.0
0.021293674803421852 -0.05881592900138116 0.0
0.0063533670945827595 -0.02852277184543428 0.0
0.011586988096659883 -0.02345255539881435 0.0
0.012162828082933631 -0.020154984305621095 0.0
0.02193131858357063 -0.030847311573139715 0.0
0.02088635824412057 -0.05157544139042682 0.0
0.02123113071128766 -0.04720933310167026 0.0
0.020113541567179816 -0.057680746478032216 0.0
0.02335190443219843 -0.053773824488225874 0.0
0.017257902884503303 -0.0517831057755781 0.0
0.017900278722379336 -0.05786008887144655 0.0
0.01691716271340432 -0.04740504695379436 0.0
0.0310234734858787 -0.013733488091186727 0.0
0.018794972517766333 -0.06047428269500867 0.0
0.02202181296581455 -0.047791447912062204 0.0
0.02222582154189191 -0.043176637187464784 0.0
0.02089439758445801 -0.05542665061624388 0.0
0.020354954225305748 -0.05523003973771917 0.0
0.013750172063402427 -0.05639609538636115 0.0
0.01932704111612978 -0.06097090372699658 0.0
0.020696358073346147 -0.05145847085862121 0.0
0.02151922612169494 -0.036953582031489296 0.0
0.02144231100828077 -0.02488602968362561 0.0
0.02526260148755453 -0.05310628169237735 0.0
0.011792232888877345 -0.013667314911023697 0.0
0.02555698302760127 -0.012957489349364738 0.0
0.02796486372933907 -0.04496481052685223 0.0
0.010500163892558517 -0.02295570252119017 0.0
0.01757281720265689 -0.06035391140170384 0.0
0.025866210583214536 -0.01972830581502172 0.0
0.02517806696889673 -0.020412257032163532 0.0
0.01996591107021839 -0.05801998221643055 0.0
0.019752841542330073 -0.060709596671762414 0.0