<VTKFile type="UnstructuredGrid"  version="0.1">
<UnstructuredGrid>
<Piece NumberOfPoints="713" NumberOfCells="1304">
<Points>
<DataArray type="Float64" NumberOfComponents="3" format="ascii">
0.0 0.0 0.0
10.0 0.0 0.0
10.0 2.0 0.0
5.0 2.0 0.0
0.0 2.0 0.0
0.199999999999856 0.0 0.0
0.3999999999996677 0.0 0.0
0.5999999999994683 0.0 0.0
0.7999999999993286 0.0 0.0
0.9999999999991888 0.0 0.0
1.199999999999033 0.0 0.0
1.399999999998576 0.0 0.0
1.599999999997992 0.0 0.0
1.799999999997408 0.0 0.0
1.999999999996825 0.0 0.0
2.199999999996241 0.0 0.0
2.399999999995657 0.0 0.0
2.599999999995073 0.0 0.0
2.79999999999449 0.0 0.0
2.999999999993906 0.0 0.0
3.199999999993322 0.0 0.0
3.399999999992738 0.0 0.0
3.599999999992154 0.0 0.0
3.799999999991571 0.0 0.0
3.999999999991022 0.0 0.0
4.199999999991187 0.0 0.0
4.399999999991491 0.0 0.0
4.599999999991795 0.0 0.0
4.799999999992099 0.0 0.0
4.999999999992403 0.0 0.0
5.199999999992706 0.0 0.0
5.39999999999301 0.0 0.0
5.599999999993313 0.0 0.0
5.799999999993618 0.0 0.0
5.999999999993922 0.0 0.0
6.199999999994227 0.0 0.0
6.39999999999453 0.0 0.0
6.599999999994833 0.0 0.0
6.799999999995138 0.0 0.0
6.999999999995442 0.0 0.0
7.199999999995747 0.0 0.0
7.39999999999605 0.0 0.0
7.599999999996353 0.0 0.0
7.799999999996658 0.0 0.0
7.999999999996962 0.0 0.0
8.199999999997265 0.0 0.0
8.399999999997569 0.0 0.0
8.599999999997873 0.0 0.0
8.799999999998176 0.0 0.0
8.99999999999848 0.0 0.0
9.199999999998786 0.0 0.0
9.399999999999089 0.0 0.0
9.599999999999392 0.0 0.0
9.799999999999697 0.0 0.0
10.0 0.1999999999996293 0.0
10.0 0.3999999999991157 0.0
10.0 0.5999999999985328 0.0
10.0 0.7999999999979498 0.0
10.0 0.9999999999973885 0.0
10.0 1.199999999997894 0.0
10.0 1.39999999999842 0.0
10.0 1.599999999998947 0.0
10.0 1.799999999999474 0.0
9.799999999999999 2.0 0.0
9.6 2.0 0.0
9.399999999999999 2.0 0.0
9.2 2.0 0.0
8.999999999999998 2.0 0.0
8.799999999999999 2.0 0.0
8.599999999999998 2.0 0.0
8.399999999999999 2.0 0.0
8.2 2.0 0.0
7.999999999999998 2.0 0.0
7.799999999999999 2.0 0.0
7.599999999999999 2.0 0.0
7.399999999999999 2.0 0.0
7.199999999999999 2.0 0.0
7.0 2.0 0.0
6.799999999999999 2.0 0.0
6.6 2.0 0.0
6.399999999999999 2.0 0.0
6.199999999999999 2.0 0.0
5.999999999999999 2.0 0.0
5.8 2.0 0.0
5.6 2.0 0.0
5.399999999999999 2.0 0.0
5.199999999999999 2.0 0.0
4.8 2.0 0.0
4.6 2.0 0.0
4.399999999999999 2.0 0.0
4.199999999999998 2.0 0.0
3.999999999999999 2.0 0.0
3.799999999999999 2.0 0.0
3.599999999999999 2.0 0.0
3.399999999999999 2.0 0.0
3.199999999999998 2.0 0.0
2.999999999999999 2.0 0.0
2.799999999999999 2.0 0.0
2.599999999999999 2.0 0.0
2.399999999999999 2.0 0.0
2.199999999999999 2.0 0.0
2.0 2.0 0.0
1.799999999999999 2.0 0.0
1.599999999999999 2.0 0.0
1.399999999999999 2.0 0.0
1.199999999999999 2.0 0.0
0.9999999999999991 2.0 0.0
0.7999999999999998 2.0 0.0
0.5999999999999996 2.0 0.0
0.3999999999999995 2.0 0.0
0.1999999999999993 2.0 0.0
0.0 1.799999999999167 0.0
0.0 1.6 0.0
0.0 1.400000000001387 0.0
0.0 1.200000000002774 0.0
0.0 1.000000000004117 0.0
0.0 0.8000000000033287 0.0
0.0 0.6000000000024965 0.0
0.0 0.4000000000016644 0.0
0.0 0.200000000000832 0.0
1.499207686858938 0.9671416246672391 0.0
2.690335006295381 0.9619521672166851 0.0
3.892537609238439 1.007271393615351 0.0
8.916602958236062 0.9848120741100651 0.0
7.714518201951718 1.024234589865042 0.0
6.514518201951581 1.024234589865268 0.0
5.299999999999998 1.000000000000349 0.0
0.7620577975594133 1.201991596673393 0.0
4.61755859746166 1.240410629378135 0.0
2.099999999996533 0.6749999999988996 0.0
3.289480163184942 0.6802242156869155 0.0
8.299999999999976 1.325000000000064 0.0
7.110519836808121 1.319775784312006 0.0
5.893184537067197 1.292851873188582 0.0
3.268568008578649 1.341967835735878 0.0
2.118368267083699 1.321829331075689 0.0
5.930896443153832 0.6493414313150682 0.0
7.106926174231782 0.6329785805444448 0.0
8.306926174233002 0.6329785805444098 0.0
4.427960725065653 0.6389803625370323 0.0
0.9828791719046732 0.6520555711814596 0.0
9.383333333333349 0.6166666666667164 0.0
9.383333333333326 1.383333333333367 0.0
4.974443803660211 0.5526668589022862 0.0
1.248084267804327 1.464555585366204 0.0
4.139486343919472 1.468449088519687 0.0
5.077806736162063 1.478342020848787 0.0
1.629462398503482 0.5098631373669138 0.0
2.579462070540726 0.5133714280880515 0.0
3.770778974032556 0.5099482598296803 0.0
8.764748922637567 1.526880805960684 0.0
7.820537929455645 1.486628571911716 0.0
6.632254923791462 1.492045881343967 0.0
2.796478414430566 1.477149214423874 0.0
6.403521585563812 0.5228507855762514 0.0
7.603521585564883 0.5228507855756581 0.0
8.783559188644787 0.5066440811355862 0.0
0.5060338924245764 0.5082251307884346 0.0
5.451633334958382 0.4799315318847731 0.0
1.683269995544083 1.547372422998862 0.0
0.448590368789599 1.551409631210402 0.0
5.545526974704655 1.582008455135239 0.0
3.666056976948354 1.56999765613834 0.0
0.4385739326402744 0.9352922270094057 0.0
9.58170539854767 0.9922137522194456 0.0
4.93200119575972 0.9247090920592975 0.0
6.20679636316332 1.642443126922768 0.0
7.418963044745086 1.587405313446662 0.0
2.98103695524982 0.412594686552066 0.0
2.420975602092416 1.592770352831584 0.0
7.97902439790374 0.4072296471687943 0.0
6.779024397902082 0.4072296471687297 0.0
1.130444757308209 0.9859238872709168 0.0
0.8901814758011342 1.60566856081121 0.0
4.263670373274499 0.9915754392410991 0.0
3.096698167273431 1.009056907826855 0.0
6.088506433998166 0.9857489435828969 0.0
1.902225037409936 1.003483800311746 0.0
7.288506433998439 0.9857489435828686 0.0
8.498964973312972 1.005823551167602 0.0
2.307571737417198 1.008136792450924 0.0
8.100397971125554 1.000138280273345 0.0
6.900397971125225 1.000138280273792 0.0
3.499307350770321 0.9996496628144824 0.0
5.703656022566558 0.9885479657552226 0.0
4.719420624357892 1.622286409566126 0.0
4.099803549896894 0.3600308081356619 0.0
1.286100671532495 0.3637431910670685 0.0
9.120549139677793 1.655065205594329 0.0
9.11726214008418 0.3400668903113251 0.0
4.642568097328033 0.3514924793220939 0.0
9.630437629189052 0.3309104953729904 0.0
9.674493769554315 1.668196579944218 0.0
1.936458797611609 0.3337070483410596 0.0
3.461817573918652 0.3447876019040473 0.0
8.440152788772068 1.649667667046397 0.0
6.973083089482548 1.643748677366674 0.0
3.126874515006838 1.659115470008545 0.0
6.070607878384977 0.3410183041038941 0.0
7.255014454789089 0.32792256737713 0.0
8.462493615948901 0.3368393217476116 0.0
9.236261261261264 0.9276047786917867 0.0
5.885444386845415 1.667751020273455 0.0
0.8062340689595878 0.3261579034781319 0.0
2.29463843780282 0.308358158429197 0.0
8.10536156219338 1.691641841570632 0.0
4.041916759198581 0.7211683801597477 0.0
1.324377365289917 0.710525897087282 0.0
9.023167917315867 1.292262965009952 0.0
2.044244009166302 1.693807225416931 0.0
0.7675765545556328 0.8969765944392112 0.0
2.86965991063896 0.7069213925303978 0.0
6.330340089355722 1.293078607468788 0.0
7.530340089355831 1.29307860746885 0.0
2.509347777214458 1.27231292939881 0.0
7.890652222779963 0.7276870706009825 0.0
6.690652222780154 0.7276870706013264 0.0
4.380959112578968 1.65866292149053 0.0
0.3278422400819535 1.233362752678148 0.0
5.754468991464942 0.3469215055361071 0.0
9.69195804401614 0.7000195364707393 0.0
9.691250997975434 1.303243780084337 0.0
5.54324561063747 1.237401556904767 0.0
9.044596057577811 0.6843248705785732 0.0
5.208929198448351 0.3519433027337513 0.0
3.708880196230617 1.249762029554333 0.0
1.713349558540635 1.234899745098077 0.0
4.586522821995393 0.9261740906803194 0.0
5.241145838821565 0.7007005766013242 0.0
1.434457446926135 1.701926055218157 0.0
0.2821921707428039 0.3393165318407161 0.0
3.42846431357046 1.714274134409306 0.0
5.26283485467567 1.710141275531951 0.0
3.966530105129177 1.718376080180638 0.0
4.891301048299285 1.259923533724591 0.0
0.2787500712946937 0.6906723798523376 0.0
1.822166578929051 0.7301892210727335 0.0
8.593276160688786 1.287322908694633 0.0
2.386017956680413 0.7288816957021155 0.0
3.576911792171353 0.7225526638483954 0.0
8.013982043315597 1.271118304297217 0.0
6.82303669320588 1.277631295759485 0.0
2.891837633696712 1.215141906356511 0.0
8.708162366297856 0.7848580936429009 0.0
7.496736072543097 0.7897651325976158 0.0
6.296736072542775 0.7897651325982009 0.0
5.523181420933933 0.7588744249744506 0.0
4.725538117155759 0.6529070682798582 0.0
2.736307197014292 0.273961667653487 0.0
7.663692802980817 1.726038332346062 0.0
6.446842959287713 1.783714797320288 0.0
1.126188383272983 1.743715177525389 0.0
2.64757240694847 1.787239829472812 0.0
6.546646507559373 0.2589894635657943 0.0
7.746646507561152 0.2589894635657218 0.0
4.079302268890254 1.221431431691139 0.0
4.433746883463333 0.2983726043497702 0.0
1.032697650548726 1.318076986199429 0.0
1.309492735411376 1.208980965369829 0.0
3.896105387998365 0.2579746081881307 0.0
9.378751775005455 1.725996478164223 0.0
9.3965279828929 0.2649862374471925 0.0
1.515757555362918 0.2603060454608533 0.0
4.959097093232828 1.726144293543605 0.0
4.912501341257775 0.2529154558175828 0.0
4.342421824442713 1.285376618065631 0.0
7.023506283123107 0.293611963231815 0.0
8.215829626877609 0.2682061590942965 0.0
5.28145265730745 1.291130016052329 0.0
8.693992162747364 1.744100892812201 0.0
0.6256567126095668 1.775064851453201 0.0
0.2724967459749605 1.756941612685287 0.0
8.90781713264278 0.2741674349222226 0.0
7.184202236567151 1.709454269177068 0.0
3.212962614055919 0.2641656831057426 0.0
0.6761590188374282 0.6746441670621973 0.0
1.020489328989316 0.2487299689497893 0.0
1.485017749467193 1.402133856149482 0.0
6.734223224917944 1.790518105434539 0.0
2.657549589911705 0.7636227781082678 0.0
6.542590471647475 1.237213715285722 0.0
7.742745187066703 1.235538225115726 0.0
0.5794341726414672 0.2480285055479751 0.0
1.842901067642841 1.760146518280044 0.0
3.84389577648662 0.7524680119172447 0.0
3.061589173628368 1.407936939342627 0.0
6.144447294584154 0.5911674363009913 0.0
7.344447294585433 0.5911674362995804 0.0
8.544447294586682 0.5911674362982269 0.0
5.491507940982565 0.1734458797927824 0.0
[...]
<PointData Vectors="fields">
<DataArray type="Float64" Name="U" NumberOfComponents="3" format="ascii">
0.0 0.0 0.0
0.03362352685240346 0.0 0.0
0.002802373016926079 -0.0062248230197462905 0.0
0.016647680261241592 -0.05411322760395785 0.0
0.030737848381667838 -0.005551501350461563 0.0
0.0003138906801074992 -0.006246245203286812 0.0
0.0009748912526883781 -0.010330183528045387 0.0
0.001572361904568729 -0.013949737162196212 0.0
0.002076518285070676 -0.017153851291386534 0.0
0.002518561119878761 -0.020215905462239687 0.0
0.002945689844184321 -0.02316339972415995 0.0
0.003376663764259522 -0.026006745097157245 0.0
0.003850967966077326 -0.028759009277866333 0.0
0.004343606124465163 -0.03142140232096781 0.0
0.004879150175799238 -0.033967077160537144 0.0
0.005445389543917391 -0.03639436423303775 0.0
0.006066979614679478 -0.03870400682530009 0.0
0.006705157223761411 -0.0408770805466314 0.0
0.007412695206232351 -0.042912460117183485 0.0
0.008124737748342194 -0.04480062634755996 0.0
0.008899895294624727 -0.046532406118701165 0.0
0.00968439150908887 -0.048092862071752805 0.0
0.010515508041656497 -0.049490758055762606 0.0
0.011358397720400086 -0.05068052093642052 0.0
0.012214122530369615 -0.05174502631129491 0.0
0.013108015864666122 -0.05260091024180971 0.0
0.013993730769848904 -0.05326214443382815 0.0
0.014905265219538942 -0.053741051393119306 0.0
0.015801479647838023 -0.05401823067113689 0.0
0.01673208294655645 -0.054111051792295806 0.0
0.01763546411155176 -0.05401157440269187 0.0
0.01853593494232375 -0.05371691063767298 0.0
0.019428442948261886 -0.053235922453360174 0.0
0.020304481372465107 -0.05256357932555346 0.0
0.021150196836949336 -0.05171582405409713 0.0
0.022005240443188082 -0.05069917500462176 0.0
0.022803489638388418 -0.04946276215203079 0.0
0.023597685647551523 -0.04811306478598785 0.0
0.02434876559727072 -0.04659334610294373 0.0
0.02509096978586028 -0.04489205947368968 0.0
0.02578649434487398 -0.043043814098286066 0.0
0.026454010561961762 -0.04105678122719596 0.0
0.027071312052803016 -0.03890138115958406 0.0
0.02767489515342581 -0.03666108043156352 0.0
0.0282334332492687 -0.03429029378724 0.0
0.028773205097070376 -0.03179095584165948 0.0
0.0292724248607711 -0.02917302261702065 0.0
0.029753391704463724 -0.026461823431589322 0.0
0.03019661789533171 -0.023647259167170958 0.0
0.03065275157558571 -0.020723899360406646 0.0
0.031103164871108487 -0.01769206829731963 0.0
0.03160518029327453 -0.014487485973335854 0.0
0.0321634411003997 -0.01100690638003781 0.0
0.033016336099031034 -0.006855079912079379 0.0
0.028404318699274664 -0.0024219613583014183 0.0
0.025018531592971287 -0.003773546254402352 0.0
0.02195774293340355 -0.004637559097091957 0.0
0.019149537337942144 -0.00529177156541189 0.0
0.016428135294731513 -0.005705362226910772 0.0
0.013755836258309938 -0.005975339581844694 0.0
0.011084987996774211 -0.006137459201758294 0.0
0.00837272838133464 -0.0062098663558118015 0.0
0.0056103680375436775 -0.0062247951016414105 0.0
0.002800234292483378 -0.009043431552987332 0.0
0.00280838672257928 -0.011899171778841368 0.0
0.0028620387235474857 -0.014799983852704457 0.0
0.002985146943718895 -0.017730503948547197 0.0
0.003187772665274481 -0.020648855903307065 0.0
0.0034602132138567905 -0.023516834785643616 0.0
0.0038064144079896613 -0.02634474526366521 0.0
0.004208887492333083 -0.0290730997806289 0.0
0.004667974506479355 -0.03170192777871493 0.0
0.005189013771599843 -0.03422675321972214 0.0
0.005732498217641394 -0.03662432639896005 0.0
0.006342810745094487 -0.0388988500472304 0.0
0.0069614227582649405 -0.041038067126954264 0.0
0.007640049171403985 -0.04303440946563667 0.0
0.008342112911916786 -0.04488858841525435 0.0
0.009077300322621603 -0.04658679225481854 0.0
0.00982512650221402 -0.04809040785603333 0.0
0.010619284882108806 -0.049496667274984404 0.0
0.011438669154742925 -0.05069062774637226 0.0
0.012257650227552363 -0.051716413341856275 0.0
0.013114957402352214 -0.05257348412571173 0.0
0.014000583708557484 -0.05323803891615809 0.0
0.014857624238989144 -0.05371671666682821 0.0
0.01575666781798456 -0.05401178424392641 0.0
0.017565711794306195 -0.05400895584785487 0.0
0.018451005510858466 -0.05373113675634528 0.0
0.019337186258488744 -0.05326520828969045 0.0
0.02024988599808617 -0.052618352161042055 0.0
0.021154577690934498 -0.05175583887789606 0.0
0.022049554089097693 -0.050709973146663034 0.0
0.022877552804874655 -0.049492159954471884 0.0
0.023700782325132536 -0.04809508901021514 0.0
0.024483298117759195 -0.04653469366995805 0.0
0.025242044745275735 -0.04480435430036163 0.0
0.025939916004199735 -0.042882733987257456 0.0
0.026625935125769846 -0.0408706391633418 0.0
0.027258300637327006 -0.03868144115211229 0.0
0.027848797462509005 -0.036358966641079946 0.0
0.02841644119998102 -0.03390958484607131 0.0
0.028928641153537507 -0.03134051897770585 0.0
0.029375773645153255 -0.028670358295081445 0.0
0.029785442052406172 -0.025894577976766205 0.0
0.03011710668074202 -0.02304258866560335 0.0
0.030381759559332172 -0.020124147561886834 0.0
0.030565392512666406 -0.01717948864447827 0.0
0.030675172069969017 -0.014221694086325936 0.0
0.030729247532409753 -0.011293553012136621 0.0
0.030741919023391927 -0.008401383836888942 0.0
0.027894739921232835 -0.0055528867734708914 0.0
0.025093908676790254 -0.005539065658873362 0.0
0.022343724675726543 -0.0054754727980047616 0.0
0.019622304293759083 -0.005329520788248355 0.0
0.016908843585579546 -0.0050601439067702704 0.0
0.014146411725957516 -0.004678777919641162 0.0
0.011300573740716767 -0.004069411278702953 0.0
0.00823870433976733 -0.003226471923186605 0.0
0.004634500940122696 -0.0018238805817492034 0.0
0.016291588434160346 -0.027489721680439977 0.0
0.016306496596677687 -0.04207499647529118 0.0
0.016710374923153488 -0.051552616561577974 0.0
0.016760732747016848 -0.021990728154368512 0.0
0.016453425917281543 -0.037859175844074514 0.0
0.01655591426250112 -0.04903742796413227 0.0
0.01669576089547252 -0.05423383359302416 0.0
0.01958021047167766 -0.016621558408104375 0.0
0.01708375928615482 -0.05410354306114748 0.0
0.013021936767685899 -0.03538130856702166 0.0
0.014353244362494374 -0.0475270456917786 0.0
0.012809843071561565 -0.03057776514353521 0.0
0.013980196361669625 -0.044123919573100696 0.0
0.015566904004894347 -0.05250791049517324 0.0
0.019189568123629566 -0.0473605163134436 0.0
0.020239185206857965 -0.03557664819024045 0.0
0.01812976463307217 -0.052333916868701445 0.0
0.01984645703958702 -0.04416294774458065 0.0
0.021081694947479288 -0.03055295529462647 0.0
0.01578991354425027 -0.0536550517445718 0.0
0.01207477923938079 -0.02000149789141409 0.0
0.02169976163747403 -0.01481635559774956 0.0
0.011368168526271734 -0.015020288940827351 0.0
0.016656817297716387 -0.05438734212002835 0.0
0.022768698790080723 -0.02383710853620477 0.0
0.018454819305884006 -0.05263782190843967 0.0
0.01649879694851545 -0.05435561284934829 0.0
0.010580232102880671 -0.029282601286775484 0.0
0.011887029218814415 -0.040855504246472996 0.0
0.014059778284707211 -0.05079004495643167 0.0
0.0098816690707924 -0.02412441943915123 0.0
0.011464517987664744 -0.03655499899361258 0.0
0.01333162974336006 -0.04810818672537776 0.0
0.020995371149491224 -0.043078194992766494 0.0
0.01957046311646377 -0.0497040519731285 0.0
0.021549845411292547 -0.03906320073940949 0.0
0.02307754532326491 -0.0239712473418179 0.0
0.009955945520183841 -0.012398682819170337 0.0
0.017758018364872487 -0.05386665557931101 0.0
0.02337888982196175 -0.029919182326775262 0.0
0.024391510488198393 -0.011974518792887188 0.0
0.01528690671980956 -0.05361775280805318 0.0
0.0200010592076274 -0.050137580493031866 0.0
0.016065442464675627 -0.011534419123466668 0.0
0.016488168824261934 -0.011840736503454928 0.0
0.01667224772322445 -0.05446637908862438 0.0
0.013359201868025998 -0.050842604119768674 0.0
0.011069912321604912 -0.04100386536649877 0.0
0.011710981378410626 -0.04481587328094925 0.0
0.02277859775360684 -0.03908115370794754 0.0
0.02337479951668349 -0.034675297095925706 0.0
0.02112062608319905 -0.04694260407370173 0.0
0.01658938866851261 -0.022179171743432247 0.0
0.024929807314314028 -0.018549134151585604 0.0
0.016657460237682924 -0.05318939922711372 0.0
0.016743282956122565 -0.04594760616424415 0.0
0.016776297706306714 -0.05161581290526894 0.0
0.016712924606595427 -0.03290049169980434 0.0
0.016842119154339124 -0.042431142872311645 0.0
0.016577658038337825 -0.02794593587504194 0.0
0.016748197483387364 -0.037875269166075955 0.0
0.016686918670495054 -0.03320654421038193 0.0
0.016708690264431187 -0.04603700608249248 0.0
0.016670911920358508 -0.0491372341119773 0.0
0.016730426553224327 -0.0532549068613948 0.0
0.017433730483443093 -0.05415876650532722 0.0
0.014154772245709794 -0.052410812260888624 0.0
0.008254422535961281 -0.024491483758586074 0.0
0.007876637271390343 -0.018931455104676944 0.0
0.025719100438605872 -0.019027543709755707 0.0
0.015679699771561723 -0.05402983779292161 0.0
0.026042692803082527 -0.010506636589393586 0.0
0.007453548274390056 -0.010809844654975694 0.0
0.008821349479583459 -0.03328959778602578 0.0
0.012328583387401575 -0.04874308270819461 0.0
0.00867977254726738 -0.028632745947213656 0.0
0.01146830915984983 -0.04529345917154213 0.0
0.02191399860047108 -0.046087242527107636 0.0
0.01979341601456435 -0.05157008666608402 0.0
0.022835508222100957 -0.04265960571421822 0.0
0.024972483576791847 -0.02844254102721869 0.0
0.017431029034126102 -0.017174608576302177 0.0
0.014112737012573507 -0.052422254836447774 0.0
0.007226384369414592 -0.01730829737021381 0.0
0.009214305270768735 -0.03763132733556799 0.0
0.00868588008995849 -0.03301975683206711 0.0
0.015517468629514933 -0.052267209576395926 0.0
0.012964290508793854 -0.02503960079830224 0.0
0.012732527611240198 -0.020392128647990337 0.0
0.024603732689011483 -0.03458338163297835 0.0
0.015477237079763664 -0.016680294674831043 0.0
0.014093875544409065 -0.04385077040627745 0.0
0.015051529432793727 -0.05023124351011032 0.0
0.013816437733533271 -0.03989287292776684 0.0
0.01937585971168526 -0.04012340556892789 0.0
0.01967655344785651 -0.035791625579952066 0.0
0.01863739676075476 -0.04772230881382197 0.0
0.01847482196704745 -0.053424691250330045 0.0
0.020102166742145045 -0.010050999476793472 0.0
0.018891272520622362 -0.05293036977685274 0.0
0.02045094842861727 -0.009794685090826517 0.0
0.012361934779751291 -0.010428669025587308 0.0
0.016128297542620434 -0.05371507635191956 0.0
0.020753832072414487 -0.020109429295359377 0.0
0.01732204076288866 -0.05421360376286624 0.0
0.01807478529341354 -0.05049506844994577 0.0
0.019527069007739095 -0.030387964979257602 0.0
0.016559929662858207 -0.05406260651064014 0.0
0.017023544360770016 -0.05429373443798945 0.0
0.025682213136529124 -0.026459915244306673 0.0
0.00732542550149164 -0.008287643723103285 0.0
0.021547331146037962 -0.04846101770307757 0.0
0.01584071063157594 -0.054119392567140226 0.0
0.01995586454223691 -0.05177839356603713 0.0
0.01680123767074071 -0.05440601041516911 0.0
0.012681266236703665 -0.008740966833017207 0.0
0.013458148298345393 -0.03186115435895368 0.0
0.013056910577309896 -0.026589778017511813 0.0
0.01385931860697554 -0.03876323395933034 0.0
0.014985240978182318 -0.049639708667594984 0.0
0.01366115577347096 -0.034254553175447684 0.0
0.01462653127064549 -0.046658852674847 0.0
0.018537627413939904 -0.04405513097729714 0.0
0.019366116847980494 -0.025037550208439348 0.0
0.01876429229129161 -0.04026117073468323 0.0
0.017876282701862117 -0.05042961349381385 0.0
0.017258982141821318 -0.053768275156876405 0.0
0.01627942750870586 -0.05425054631854238 0.0
0.009873260069195611 -0.04241047283283764 0.0
0.009151797568483642 -0.03830118885741296 0.0
0.011844334985889972 -0.049297195615231965 0.0
0.026619692309077188 -0.02202167859162237 0.0
0.024290202971273708 -0.04145995417064508 0.0
0.021607333720008125 -0.048638060928657245 0.0
0.024619893442460034 -0.037382970295297156 0.0
0.017570202027748588 -0.052436968997990455 0.0
0.014932354140668146 -0.053538129755523904 0.0
0.020994396229145763 -0.020691963739114028 0.0
0.01942442435824085 -0.024761122067687023 0.0
0.013076515353286234 -0.051386566935951984 0.0
0.006743095100736964 -0.015120875698975836 0.0
0.02712574021894358 -0.014591471303780822 0.0
0.007170435393586579 -0.027702495784222136 0.0
0.016787414884454652 -0.05428328814459612 0.0
0.016426287361918247 -0.05425367733714556 0.0
0.0175018123997379 -0.05341736004034939 0.0
0.02260227967389371 -0.044821893908196714 0.0
0.025436038391796114 -0.0316766555972108 0.0
0.0163221590744358 -0.05422888556930794 0.0
0.007116720370376724 -0.025088770727537214 0.0
0.027435636276910588 -0.014613176526259392 0.0
0.027277247894814616 -0.009434118767278215 0.0
0.02645576689331393 -0.022159627592181746 0.0
0.010403214406894151 -0.04331892049122836 0.0
0.011063649552256251 -0.04677852785811751 0.0
0.012393323102149403 -0.015225617046401038 0.0
0.006277510236158828 -0.02058206479460359 0.0
0.021764497041700265 -0.02722022380263012 0.0
0.010921315771441276 -0.047205107223297016 0.0
0.014412377948345562 -0.041723878251635704 0.0
0.015167684996157962 -0.04882091845836441 0.0
0.014231170082366159 -0.037511433946368855 0.0
0.005817551293309192 -0.013614408148586004 0.0
0.025780529665084616 -0.0319837782835301 0.0
0.015433768738040584 -0.051262180960429976 0.0
0.019980639876500783 -0.045584124123256534 0.0
0.018725906121235408 -0.051258457849691796 0.0
0.020516373719025788 -0.041824364681766736 0.0
0.021776951455446947 -0.02733866799344379 0.0
0.018538489104922347 -0.05363461619616018 0.0
0.013903730900099602 -0.028387180587134797 0.0
0.023325772559638677 -0.04430873413763142 0.0
0.02421183442438432 -0.040619879115723935 0.0
0.020878406847717648 -0.050519318731094116 0.0
0.02312330330811353 -0.015403354918467754 0.0
0.013994843913593673 -0.014979793927130655 0.0
0.014443250357174545 -0.053096397186300964 0.0
0.018681274119921636 -0.05139857328547549 0.0
0.008600739233648548 -0.03999563566912632 0.0
0.007893609874924065 -0.035622377359425236 0.0
0.01821747431920023 -0.05305835976281351 0.0
0.013625444253547673 -0.02399060445615917 0.0
0.022636902582734035 -0.03353104141227787 0.0
0.019045017325798906 -0.013335231012861829 0.0
0.019484939941602185 -0.052709574135686325 0.0
0.02360279577159964 -0.007767532165191643 0.0
0.012173119481141421 -0.05000893201504691 0.0
0.007098914452742142 -0.030817864947705262 0.0
0.017696125250984945 -0.05387359426945804 0.0
0.01299785227785906 -0.05149202766805684 0.0
0.019177837036547463 -0.049279812756785 0.0
0.025300313599125684 -0.03742151720121178 0.0
0.016664039660145156 -0.054438378919720976 0.0
0.01722382219199645 -0.00870093330527889 0.0
0.015508752550986264 -0.05329784909815852 0.0
0.016348657676826896 -0.05249813534248087 0.0
0.015560129863236452 -0.0306106382551953 0.0
0.01588630871520972 -0.04413433395198104 0.0
0.015617518732159686 -0.03538986194804506 0.0
0.01596324724020746 -0.04752082876758555 0.0
0.006281872822852542 -0.0215046575785461 0.0
0.01767993119189384 -0.00859459362177464 0.0
0.021062886783870645 -0.05047575126073671 0.0
0.016726936545147314 -0.054445070128894046 0.0
0.01613975205803236 -0.05422759548387321 0.0
0.013117127890202073 -0.011628347202171676 0.0
0.027154775962856332 -0.0251150838761639 0.0
0.021183204247870565 -0.03344458689767798 0.0
0.021231888947170277 -0.03776662958842322 0.0
0.01975554452227122 -0.04615503075502321 0.0
0.013111699194059934 -0.04213924351712846 0.0
0.01353826313529799 -0.045820309366496025 0.0
0.014889276240275215 -0.05154188080349819 0.0
0.007420356959129936 -0.03543407447587259 0.0
0.006886555036209853 -0.030645531102975507 0.0
0.0138670328351648 -0.04956029210324872 0.0
0.011956474045500536 -0.03887684918423631 0.0
0.012407356079599436 -0.04294078626206407 0.0
0.019281069626133074 -0.03302093493096148 0.0
0.018702652890764684 -0.014111885972678848 0.0
0.00989355510601648 -0.00891336589549476 0.0
0.023048143945872932 -0.007642413291220423 0.0
0.017524273819983362 -0.0474861509732886 0.0
0.017963619796642172 -0.03558948704982183 0.0
0.01719968624955747 -0.052403220511742926 0.0
0.017749422151415714 -0.04407321338829534 0.0
0.01811530871677838 -0.03038952752273058 0.0
0.026008975954217754 -0.029331369863938587 0.0
0.009977659743319265 -0.006654229338453772 0.0
0.021262478096498266 -0.041181355181440546 0.0
0.01989195350777148 -0.04843280522372381 0.0
0.021774946220851674 -0.03695895339697164 0.0
0.015671901551810963 -0.04004931094229386 0.0
0.016084018791689803 -0.04767935599810508 0.0
0.015623435467876206 -0.03563510708419685 0.0
0.018210776556313132 -0.053792851821882835 0.0
0.016129298201305053 -0.05049460165607901 0.0
0.011665745570480423 -0.0373429016391564 0.0
0.011331495818564338 -0.032697900651497636 0.0
0.01987720267074248 -0.0522822252886598 0.0
0.017135855363029712 -0.05425630736098916 0.0
0.013964697096566142 -0.02240557302024798 0.0
0.015559154621872743 -0.024755511866595192 0.0
0.015345408410033253 -0.019326996219528807 0.0
0.014706680477065732 -0.052147452665829805 0.0
0.01563207760446416 -0.030315825696369036 0.0
0.008778429664310892 -0.04008517393991589 0.0
0.009644011332330487 -0.0439888285722823 0.0
0.016771382337472364 -0.054284862923543925 0.0
0.025312681041171195 -0.03520649527425567 0.0
0.022322289081868302 -0.04725104072009433 0.0
0.012809727001145708 -0.047295205674467565 0.0
0.012219423346140627 -0.04381577814545037 0.0
0.01062073878505495 -0.025592094631866204 0.0
0.02811804977352738 -0.006991855780210278 0.0
0.005763692010653481 -0.009189697797601983 0.0
0.017633757787775414 -0.018895994284548516 0.0
0.017444491790294853 -0.05323991067875219 0.0
0.016352808731284415 -0.05250147588697451 0.0
0.015992855410891234 -0.05311198156866226 0.0
0.01472760946680321 -0.008861945634130492 0.0
0.014950967625614217 -0.05367281536482081 0.0
0.027597036772576067 -0.018972782193827007 0.0
0.015875563639594005 -0.024967755683810704 0.0
0.02202762065412092 -0.012866817632737027 0.0
0.015202892133523214 -0.052905229200017924 0.0
0.01610223338149803 -0.04411514000474027 0.0
0.01632146192182576 -0.05050035583930226 0.0
0.016029014783427678 -0.04035525637644009 0.0
0.01075696617146255 -0.022805932828698625 0.0
0.010945872471227296 -0.03190389124894367 0.0
0.01068731713613396 -0.026830831202854705 0.0
0.013764451093845404 -0.049617942608650975 0.0
0.013090480182966636 -0.04659210872420776 0.0
0.01695716668708477 -0.05379418137119037 0.0
0.01332856429071253 -0.05227989795568657 0.0
0.023146968152647465 -0.021317385554914685 0.0
0.02336898752491064 -0.03057249075371796 0.0
0.02143777501203138 -0.04413838579375661 0.0
0.01616441775838596 -0.05325075396293208 0.0
0.01884714897609436 -0.052420166007023275 0.0
0.005422542552428481 -0.025028024062688677 0.0
0.010195489867421317 -0.020983233784426358 0.0
0.010704317746005245 -0.01805223603346923 0.0
0.01940410651521482 -0.027534605510545783 0.0
0.01844285249165434 -0.045671892936306586 0.0
0.018800568414734584 -0.042060514237519865 0.0
0.017797231345885206 -0.051392688326695884 0.0
0.020715017807740314 -0.04769896510862623 0.0
0.015126800464572293 -0.04586039973346767 0.0
0.015827508116856053 -0.05155274853655354 0.0
0.014944459904863368 -0.04223395869401139 0.0
0.02743919664709984 -0.011943404810024386 0.0
0.01660955047360901 -0.05386263455898952 0.0
0.019462447310185187 -0.04224413962515289 0.0
0.01968312514097885 -0.03847674436803839 0.0
0.018501392487259655 -0.049387386451170884 0.0
0.017971862543749516 -0.04900712531823085 0.0
0.012137181700925833 -0.05029993142193137 0.0
0.017064194041790014 -0.054317978618323534 0.0
0.018325956492039025 -0.045845661767424786 0.0
0.019043330502301878 -0.032950172304099586 0.0
0.01896437810621763 -0.022244449190990445 0.0
0.022459793030946595 -0.04711461289360071 0.0
0.010367028278237654 -0.012283492273353448 0.0
0.022618163662802036 -0.01161851496663035 0.0
0.02482433366216473 -0.039733526842084185 0.0
0.009147594971711675 -0.02007824924503358 0.0
0.015435501287685404 -0.053738933125364735 0.0
0.02290217893918566 -0.017658349837242203 0.0
0.022240477689576873 -0.01784184046556208 0.0
0.017627681986544415 -0.0515709425005442 0.0