<VTKFile type="UnstructuredGrid"  version="0.1">
<UnstructuredGrid>
<Piece NumberOfPoints="713" NumberOfCells="1304">
<Points>
<DataArray type="Float64" NumberOfComponents="3" format="ascii">
0.0 0.0 0.0
10.0 0.0 0.0
10.0 2.0 0.0
5.0 2.0 0.0
0.0 2.0 0.0
0.199999999999856 0.0 0.0
0.3999999999996677 0.0 0.0
0.5999999999994683 0.0 0.0
0.7999999999993286 0.0 0.0
0.9999999999991888 0.0 0.0
1.199999999999033 0.0 0.0
1.399999999998576 0.0 0.0
1.599999999997992 0.0 0.0
1.799999999997408 0.0 0.0
1.999999999996825 0.0 0.0
2.199999999996241 0.0 0.0
2.399999999995657 0.0 0.0
2.599999999995073 0.0 0.0
2.79999999999449 0.0 0.0
2.999999999993906 0.0 0.0
3.199999999993322 0.0 0.0
3.399999999992738 0.0 0.0
3.599999999992154 0.0 0.0
3.799999999991571 0.0 0.0
3.999999999991022 0.0 0.0
4.199999999991187 0.0 0.0
4.399999999991491 0.0 0.0
4.599999999991795 0.0 0.0
4.799999999992099 0.0 0.0
4.999999999992403 0.0 0.0
5.199999999992706 0.0 0.0
5.39999999999301 0.0 0.0
5.599999999993313 0.0 0.0
5.799999999993618 0.0 0.0
5.999999999993922 0.0 0.0
6.199999999994227 0.0 0.0
6.39999999999453 0.0 0.0
6.599999999994833 0.0 0.0
6.799999999995138 0.0 0.0
6.999999999995442 0.0 0.0
7.199999999995747 0.0 0.0
7.39999999999605 0.0 0.0
7.599999999996353 0.0 0.0
7.799999999996658 0.0 0.0
7.999999999996962 0.0 0.0
8.199999999997265 0.0 0.0
8.399999999997569 0.0 0.0
8.599999999997873 0.0 0.0
8.799999999998176 0.0 0.0
8.99999999999848 0.0 0.0
9.199999999998786 0.0 0.0
9.399999999999089 0.0 0.0
9.599999999999392 0.0 0.0
9.799999999999697 0.0 0.0
10.0 0.1999999999996293 0.0
10.0 0.3999999999991157 0.0
10.0 0.5999999999985328 0.0
10.0 0.7999999999979498 0.0
10.0 0.9999999999973885 0.0
10.0 1.199999999997894 0.0
10.0 1.39999999999842 0.0
10.0 1.599999999998947 0.0
10.0 1.799999999999474 0.0
9.799999999999999 2.0 0.0
9.6 2.0 0.0
9.399999999999999 2.0 0.0
9.2 2.0 0.0
8.999999999999998 2.0 0.0
8.799999999999999 2.0 0.0
8.599999999999998 2.0 0.0
8.399999999999999 2.0 0.0
8.2 2.0 0.0
7.999999999999998 2.0 0.0
7.799999999999999 2.0 0.0
7.599999999999999 2.0 0.0
7.399999999999999 2.0 0.0
7.199999999999999 2.0 0.0
7.0 2.0 0.0
6.799999999999999 2.0 0.0
6.6 2.0 0.0
6.399999999999999 2.0 0.0
6.199999999999999 2.0 0.0
5.999999999999999 2.0 0.0
5.8 2.0 0.0
5.6 2.0 0.0
5.399999999999999 2.0 0.0
5.199999999999999 2.0 0.0
4.8 2.0 0.0
4.6 2.0 0.0
4.399999999999999 2.0 0.0
4.199999999999998 2.0 0.0
3.999999999999999 2.0 0.0
3.799999999999999 2.0 0.0
3.599999999999999 2.0 0.0
3.399999999999999 2.0 0.0
3.199999999999998 2.0 0.0
2.999999999999999 2.0 0.0
2.799999999999999 2.0 0.0
2.599999999999999 2.0 0.0
2.399999999999999 2.0 0.0
2.199999999999999 2.0 0.0
2.0 2.0 0.0
1.799999999999999 2.0 0.0
1.599999999999999 2.0 0.0
1.399999999999999 2.0 0.0
1.199999999999999 2.0 0.0
0.9999999999999991 2.0 0.0
0.7999999999999998 2.0 0.0
0.5999999999999996 2.0 0.0
0.3999999999999995 2.0 0.0
0.1999999999999993 2.0 0.0
0.0 1.799999999999167 0.0
0.0 1.6 0.0
0.0 1.400000000001387 0.0
0.0 1.200000000002774 0.0
0.0 1.000000000004117 0.0
0.0 0.8000000000033287 0.0
0.0 0.6000000000024965 0.0
0.0 0.4000000000016644 0.0
0.0 0.200000000000832 0.0
1.499207686858938 0.9671416246672391 0.0
2.690335006295381 0.9619521672166851 0.0
3.892537609238439 1.007271393615351 0.0
8.916602958236062 0.9848120741100651 0.0
7.714518201951718 1.024234589865042 0.0
6.514518201951581 1.024234589865268 0.0
5.299999999999998 1.000000000000349 0.0
0.7620577975594133 1.201991596673393 0.0
4.61755859746166 1.240410629378135 0.0
2.099999999996533 0.6749999999988996 0.0
3.289480163184942 0.6802242156869155 0.0
8.299999999999976 1.325000000000064 0.0
7.110519836808121 1.319775784312006 0.0
5.893184537067197 1.292851873188582 0.0
3.268568008578649 1.341967835735878 0.0
2.118368267083699 1.321829331075689 0.0
5.930896443153832 0.6493414313150682 0.0
7.106926174231782 0.6329785805444448 0.0
8.306926174233002 0.6329785805444098 0.0
4.427960725065653 0.6389803625370323 0.0
0.9828791719046732 0.6520555711814596 0.0
9.383333333333349 0.6166666666667164 0.0
9.383333333333326 1.383333333333367 0.0
4.974443803660211 0.5526668589022862 0.0
1.248084267804327 1.464555585366204 0.0
4.139486343919472 1.468449088519687 0.0
5.077806736162063 1.478342020848787 0.0
1.629462398503482 0.5098631373669138 0.0
2.579462070540726 0.5133714280880515 0.0
3.770778974032556 0.5099482598296803 0.0
8.764748922637567 1.526880805960684 0.0
7.820537929455645 1.486628571911716 0.0
6.632254923791462 1.492045881343967 0.0
2.796478414430566 1.477149214423874 0.0
6.403521585563812 0.5228507855762514 0.0
7.603521585564883 0.5228507855756581 0.0
8.783559188644787 0.5066440811355862 0.0
0.5060338924245764 0.5082251307884346 0.0
5.451633334958382 0.4799315318847731 0.0
1.683269995544083 1.547372422998862 0.0
0.448590368789599 1.551409631210402 0.0
5.545526974704655 1.582008455135239 0.0
3.666056976948354 1.56999765613834 0.0
0.4385739326402744 0.9352922270094057 0.0
9.58170539854767 0.9922137522194456 0.0
4.93200119575972 0.9247090920592975 0.0
6.20679636316332 1.642443126922768 0.0
7.418963044745086 1.587405313446662 0.0
2.98103695524982 0.412594686552066 0.0
2.420975602092416 1.592770352831584 0.0
7.97902439790374 0.4072296471687943 0.0
6.779024397902082 0.4072296471687297 0.0
1.130444757308209 0.9859238872709168 0.0
0.8901814758011342 1.60566856081121 0.0
4.263670373274499 0.9915754392410991 0.0
3.096698167273431 1.009056907826855 0.0
6.088506433998166 0.9857489435828969 0.0
1.902225037409936 1.003483800311746 0.0
7.288506433998439 0.9857489435828686 0.0
8.498964973312972 1.005823551167602 0.0
2.307571737417198 1.008136792450924 0.0
8.100397971125554 1.000138280273345 0.0
6.900397971125225 1.000138280273792 0.0
3.499307350770321 0.9996496628144824 0.0
5.703656022566558 0.9885479657552226 0.0
4.719420624357892 1.622286409566126 0.0
4.099803549896894 0.3600308081356619 0.0
1.286100671532495 0.3637431910670685 0.0
9.120549139677793 1.655065205594329 0.0
9.11726214008418 0.3400668903113251 0.0
4.642568097328033 0.3514924793220939 0.0
9.630437629189052 0.3309104953729904 0.0
9.674493769554315 1.668196579944218 0.0
1.936458797611609 0.3337070483410596 0.0
3.461817573918652 0.3447876019040473 0.0
8.440152788772068 1.649667667046397 0.0
6.973083089482548 1.643748677366674 0.0
3.126874515006838 1.659115470008545 0.0
6.070607878384977 0.3410183041038941 0.0
7.255014454789089 0.32792256737713 0.0
8.462493615948901 0.3368393217476116 0.0
9.236261261261264 0.9276047786917867 0.0
5.885444386845415 1.667751020273455 0.0
0.8062340689595878 0.3261579034781319 0.0
2.29463843780282 0.308358158429197 0.0
8.10536156219338 1.691641841570632 0.0
4.041916759198581 0.7211683801597477 0.0
1.324377365289917 0.710525897087282 0.0
9.023167917315867 1.292262965009952 0.0
2.044244009166302 1.693807225416931 0.0
0.7675765545556328 0.8969765944392112 0.0
2.86965991063896 0.7069213925303978 0.0
6.330340089355722 1.293078607468788 0.0
7.530340089355831 1.29307860746885 0.0
2.509347777214458 1.27231292939881 0.0
7.890652222779963 0.7276870706009825 0.0
6.690652222780154 0.7276870706013264 0.0
4.380959112578968 1.65866292149053 0.0
0.3278422400819535 1.233362752678148 0.0
5.754468991464942 0.3469215055361071 0.0
9.69195804401614 0.7000195364707393 0.0
9.691250997975434 1.303243780084337 0.0
5.54324561063747 1.237401556904767 0.0
9.044596057577811 0.6843248705785732 0.0
5.208929198448351 0.3519433027337513 0.0
3.708880196230617 1.249762029554333 0.0
1.713349558540635 1.234899745098077 0.0
4.586522821995393 0.9261740906803194 0.0
5.241145838821565 0.7007005766013242 0.0
1.434457446926135 1.701926055218157 0.0
0.2821921707428039 0.3393165318407161 0.0
3.42846431357046 1.714274134409306 0.0
5.26283485467567 1.710141275531951 0.0
3.966530105129177 1.718376080180638 0.0
4.891301048299285 1.259923533724591 0.0
0.2787500712946937 0.6906723798523376 0.0
1.822166578929051 0.7301892210727335 0.0
8.593276160688786 1.287322908694633 0.0
2.386017956680413 0.7288816957021155 0.0
3.576911792171353 0.7225526638483954 0.0
8.013982043315597 1.271118304297217 0.0
6.82303669320588 1.277631295759485 0.0
2.891837633696712 1.215141906356511 0.0
8.708162366297856 0.7848580936429009 0.0
7.496736072543097 0.7897651325976158 0.0
6.296736072542775 0.7897651325982009 0.0
5.523181420933933 0.7588744249744506 0.0
4.725538117155759 0.6529070682798582 0.0
2.736307197014292 0.273961667653487 0.0
7.663692802980817 1.726038332346062 0.0
6.446842959287713 1.783714797320288 0.0
1.126188383272983 1.743715177525389 0.0
2.64757240694847 1.787239829472812 0.0
6.546646507559373 0.2589894635657943 0.0
7.746646507561152 0.2589894635657218 0.0
4.079302268890254 1.221431431691139 0.0
4.433746883463333 0.2983726043497702 0.0
1.032697650548726 1.318076986199429 0.0
1.309492735411376 1.208980965369829 0.0
3.896105387998365 0.2579746081881307 0.0
9.378751775005455 1.725996478164223 0.0
9.3965279828929 0.2649862374471925 0.0
1.515757555362918 0.2603060454608533 0.0
4.959097093232828 1.726144293543605 0.0
4.912501341257775 0.2529154558175828 0.0
4.342421824442713 1.285376618065631 0.0
7.023506283123107 0.293611963231815 0.0
8.215829626877609 0.2682061590942965 0.0
5.28145265730745 1.291130016052329 0.0
8.693992162747364 1.744100892812201 0.0
0.6256567126095668 1.775064851453201 0.0
0.2724967459749605 1.756941612685287 0.0
8.90781713264278 0.2741674349222226 0.0
7.184202236567151 1.709454269177068 0.0
3.212962614055919 0.2641656831057426 0.0
0.6761590188374282 0.6746441670621973 0.0
1.020489328989316 0.2487299689497893 0.0
1.485017749467193 1.402133856149482 0.0
6.734223224917944 1.790518105434539 0.0
2.657549589911705 0.7636227781082678 0.0
6.542590471647475 1.237213715285722 0.0
7.742745187066703 1.235538225115726 0.0
0.5794341726414672 0.2480285055479751 0.0
1.842901067642841 1.760146518280044 0.0
3.84389577648662 0.7524680119172447 0.0
3.061589173628368 1.407936939342627 0.0
6.144447294584154 0.5911674363009913 0.0
7.344447294585433 0.5911674362995804 0.0
8.544447294586682 0.5911674362982269 0.0
5.491507940982565 0.1734458797927824 0.0
[...]
<PointData Vectors="fields">
<DataArray type="Float64" Name="U" NumberOfComponents="3" format="ascii">
0.0 0.0 0.0
0.030625719822785048 0.0 0.0
0.00245333390389892 -0.005657050414181299 0.0
0.015229596028273973 -0.04903990171606653 0.0
0.02787985817633572 -0.005228441409503548 0.0
0.0003189687093582772 -0.005791417484108815 0.0
0.0009462710918662309 -0.009521370754360685 0.0
0.001510701983085796 -0.012824482725581699 0.0
0.001983352428639 -0.01573169049048799 0.0
0.00239770373480748 -0.01850808962712899 0.0
0.002797763981032174 -0.021176978061093223 0.0
0.003200280459210601 -0.023747285504136285 0.0
0.003642493882211698 -0.02623259747840178 0.0
0.004099370851929191 -0.02863402429177042 0.0
0.004593036515116883 -0.030925986478838433 0.0
0.0051119117916272805 -0.033107539264816084 0.0
0.00567814231340134 -0.03518051491199487 0.0
0.006255354260535496 -0.0371275555085073 0.0
0.006892073417799625 -0.038948747197005924 0.0
0.0075274403086262555 -0.040636320010957586 0.0
0.008214702009819747 -0.04218325295641587 0.0
0.008904771237211832 -0.04357649529654644 0.0
0.009631027382610494 -0.04482614865759341 0.0
0.010364497343889105 -0.045891522227134135 0.0
0.011107443189642732 -0.04684876000825033 0.0
0.011884234507046947 -0.047622881720155226 0.0
0.012657110254594327 -0.04822677485016704 0.0
0.01345765030826346 -0.04867098899179093 0.0
0.01424908927372935 -0.048936807713673085 0.0
0.015074907653365917 -0.049040613441740856 0.0
0.015878387242985285 -0.048973499047933196 0.0
0.016680247542738388 -0.048731027882920004 0.0
0.017476492022910673 -0.04832128805610597 0.0
0.01826059482594118 -0.04773866908292728 0.0
0.019021571676789733 -0.04699650553002602 0.0
0.01979698859394194 -0.04610137752932247 0.0
0.020529059111675303 -0.04500242806796279 0.0
0.021261610740759655 -0.04379996594552346 0.0
0.021958601519426812 -0.042440227901376096 0.0
0.022651759896988866 -0.04091047666347379 0.0
0.023303162286084714 -0.039243222872990535 0.0
0.02392909458155692 -0.037446608207227165 0.0
0.024509387442696505 -0.03549022004385604 0.0
0.025077055414034963 -0.033455840277669756 0.0
0.025602313921508062 -0.03129836446315852 0.0
0.026110754725003724 -0.02902005489129229 0.0
0.026581599494516963 -0.026629979264320865 0.0
0.02703481446636395 -0.02415361890990671 0.0
0.02745046356908855 -0.02158181209294384 0.0
0.027874824900758807 -0.0189103746644105 0.0
0.028289395646498638 -0.016142852441769297 0.0
0.028747507322072062 -0.013219376836948772 0.0
0.029251961681419525 -0.010047543609533147 0.0
0.030029469070641603 -0.0062741266281438075 0.0
0.02585949311218424 -0.0022280678300835278 0.0
0.022775560426536983 -0.0034523205811306675 0.0
0.019976437665096738 -0.004231508866780484 0.0
0.017407869720172234 -0.004820494688693916 0.0
0.014916196269399818 -0.005190734783100381 0.0
0.01247010985132597 -0.005431979445540481 0.0
0.010026179799884011 -0.005577889665869947 0.0
0.0075454352077428 -0.0056433384805470495 0.0
0.005020071436411032 -0.005656836324514132 0.0
0.0024514621598673517 -0.008233338963144696 0.0
0.0024587754585653097 -0.010843306748055066 0.0
0.0025078221690190334 -0.013493952142316017 0.0
0.0026206771537747196 -0.01617224561742228 0.0
0.0028071083087964515 -0.018839686877412054 0.0
0.003059634651681028 -0.021460699761659038 0.0
0.0033807148754631585 -0.0240462439598267 0.0
0.003755350948172113 -0.02653889045912341 0.0
0.004184121808780965 -0.02893809727526348 0.0
0.004671551406804005 -0.031240590599740718 0.0
0.005180414962991969 -0.03342289125982531 0.0
0.005752762968829342 -0.03548970146878094 0.0
0.006332082932271061 -0.037428988625562494 0.0
0.006967449415727414 -0.039234226733478116 0.0
0.007623135616992155 -0.040906117597111054 0.0
0.008307008020155422 -0.04243243203420524 0.0
0.009000112493588432 -0.043775769944697424 0.0
0.009732744761504047 -0.045031622819076945 0.0
0.010484494809688586 -0.04609034622970121 0.0
0.01123339321263941 -0.04699509643414728 0.0
0.012016337271183621 -0.04774594999070195 0.0
0.012824645739035977 -0.04832239178130686 0.0
0.013605659411161675 -0.0487298215706657 0.0
0.01442329781669035 -0.04897175049644718 0.0
0.016053318360527098 -0.04892425225404558 0.0
0.01683880530164224 -0.0486557185729025 0.0
0.017613771543678318 -0.04822136271038557 0.0
0.018401995350243686 -0.04762911328745328 0.0
0.019178376733115232 -0.04684902901870942 0.0
0.019948554003428685 -0.04591005245800445 0.0
0.020666823176239905 -0.044821038611701725 0.0
0.021392387265293897 -0.043573475025907416 0.0
0.02209325807883729 -0.04218204516909765 0.0
0.022782884943235524 -0.04063799166458241 0.0
0.023424927253709676 -0.038918814261943754 0.0
0.0240581461267002 -0.03711927282258219 0.0
0.02464246124865446 -0.03515666446448458 0.0
0.025189095935321405 -0.03307115319146567 0.0
0.025715343770281097 -0.03086833379898419 0.0
0.026190933202845813 -0.02855487852218786 0.0
0.02660691962797273 -0.026147270295044947 0.0
0.026989008029078488 -0.02363997600673259 0.0
0.027298694410133155 -0.021061738832251414 0.0
0.027546462817458053 -0.018420371747440035 0.0
0.027718506144524806 -0.01575451030994555 0.0
0.027821293370236838 -0.013075404432491666 0.0
0.02787170390503261 -0.010424251510780585 0.0
0.027883754212079687 -0.007806564317104101 0.0
0.025308029285148876 -0.005229708507268932 0.0
0.02277582777001899 -0.0052169253726074795 0.0
0.020291337725999486 -0.005157428714610067 0.0
0.017833211121098157 -0.005020450935903379 0.0
0.015383534164645657 -0.0047677718711308 0.0
0.012887047887046203 -0.00440919711506985 0.0
0.01031329814166994 -0.003836360606886053 0.0
0.0075363914616442765 -0.0030445746392136863 0.0
0.0042463998010165505 -0.0017206066275658916 0.0
0.014838095801369983 -0.025123757814606434 0.0
0.014835701483791815 -0.03825625208817481 0.0
0.015173984937216925 -0.04672397059739428 0.0
0.01519368959024085 -0.020094493414584018 0.0
0.014907957801723343 -0.03460141955614869 0.0
0.015001448369639809 -0.044696650359457885 0.0
0.015140505790753761 -0.04925528787868329 0.0
0.017808073475705195 -0.015264646925941837 0.0
0.015526004181443887 -0.04905445067027568 0.0
0.011902984421824303 -0.0322412582965754 0.0
0.013083148983527812 -0.043122707969197274 0.0
0.011596413008461414 -0.02795115483006905 0.0
0.012686273431849294 -0.040276815497273695 0.0
0.014146325090170329 -0.04776191118534345 0.0
0.017387306785931853 -0.04297414279369874 0.0
0.018366621766486423 -0.03241460422023075 0.0
0.01638072032820424 -0.04760573820181841 0.0
0.017950204898135192 -0.040311405585241836 0.0
0.01911844655147612 -0.027930448404947593 0.0
0.014309541083253373 -0.04863273116864933 0.0
0.011043740480443086 -0.018338609147359124 0.0
0.019706056463552533 -0.013532662654672987 0.0
0.010275419510425687 -0.013705470010702648 0.0
0.0150626614113958 -0.04934094061495499 0.0
0.02066836824299901 -0.021804893157887143 0.0
0.01675784368823655 -0.04768770966537672 0.0
0.015026875149408798 -0.0493227213699992 0.0
0.009704969511538155 -0.02673756287428449 0.0
0.010889794134290767 -0.037149952541036396 0.0
0.012795497846703065 -0.046030748448468814 0.0
0.00892049586384516 -0.022037588175501232 0.0
0.010385670871990731 -0.03340041835793832 0.0
0.012128528868668931 -0.043848203123790695 0.0
0.019012590895981167 -0.039142665932189395 0.0
0.017665865499732158 -0.045274457690795265 0.0
0.019510856569759934 -0.035683532325691714 0.0
0.020952166907954567 -0.021905340319566678 0.0
0.009127987328254613 -0.011426534825410091 0.0
0.016034803726272303 -0.04892146002299316 0.0
0.021201758124377256 -0.027303450919214125 0.0
0.02214452375711888 -0.011044118775156746 0.0
0.013935249380122144 -0.048706868781602325 0.0
0.01810830638160861 -0.04543635726993345 0.0
0.014641943422720275 -0.010641295892197785 0.0
0.014954396062095936 -0.010804548298304512 0.0
0.0151169939880065 -0.04942130689247535 0.0
0.012183046127888723 -0.04626973444328245 0.0
0.010047775386558776 -0.03743792279327554 0.0
0.010731191512704285 -0.04068748105784971 0.0
0.020627290839748482 -0.03555262498163356 0.0
0.021185051845897137 -0.03168271472034768 0.0
0.01906906606859019 -0.0427987045879426 0.0
0.015110836521853955 -0.020312904468101342 0.0
0.02262488547186355 -0.017006225957729902 0.0
0.015120599276838037 -0.04820644833278216 0.0
0.015216929492799614 -0.04171991007052803 0.0
0.015199601099475227 -0.046983660110811995 0.0
0.01521137946560307 -0.030010115196777702 0.0
0.015256483076467996 -0.03875307684545326 0.0
0.015024790757138607 -0.025549173890177475 0.0
0.015236746906332258 -0.03448819353545295 0.0
0.015121754764369826 -0.030359326477174688 0.0
0.015135668474600326 -0.042008450086734414 0.0
0.015144838878579573 -0.044564743784218715 0.0
0.015163865111802736 -0.04841914897004108 0.0
0.015888539354576632 -0.04909246729993663 0.0
0.012848040338108789 -0.04748172857849393 0.0
0.0076001834529913805 -0.022401587694410433 0.0
0.007087504923627579 -0.017279588861016836 0.0
0.023371405039454767 -0.017379939574629858 0.0
0.014176944559046488 -0.04897120353864841 0.0
0.02367073767823671 -0.00960344841003424 0.0
0.006702836692906126 -0.009849836330566509 0.0
0.008133223951959933 -0.030343137411166156 0.0
0.01126572042153954 -0.04418996144836853 0.0
0.007831757381317523 -0.02615888532082129 0.0
0.01043675599792935 -0.0413107218335679 0.0
0.01981126675706318 -0.04181931023436942 0.0
0.017840057963721595 -0.046911800717636745 0.0
0.02064697852994056 -0.03893182319021081 0.0
0.022665485492091395 -0.025988357053270805 0.0
0.0158079784223538 -0.015685052592539366 0.0
0.012876344985384307 -0.04765939712006331 0.0
0.006657425201684381 -0.015890674886475536 0.0
0.008495621590501174 -0.034245467584838624 0.0
0.007849456019927073 -0.030164917563491475 0.0
0.01409060521474329 -0.04736641944147509 0.0
0.011846053952244385 -0.02290625970440964 0.0
0.011518869555084518 -0.018625300912441085 0.0
0.02228513490612725 -0.031501379966086755 0.0
0.014113291551953563 -0.015321047136695796 0.0
0.012859436156971608 -0.03984054846250717 0.0
0.013673355620506436 -0.045752761546975274 0.0
0.012525487019471558 -0.036445923077150916 0.0
0.01758031794341675 -0.03650272556953194 0.0
0.017828741873275964 -0.032714516340155125 0.0
0.016851969105158293 -0.043516782919371146 0.0
0.01680933576331185 -0.048396636005975165 0.0
0.018276806143749335 -0.009297157711907115 0.0
0.017031249596659855 -0.04810236328718793 0.0
0.01857661770624232 -0.008942312347547204 0.0
0.011187503650220984 -0.009505784846770227 0.0
0.01465249877321842 -0.04881319421406196 0.0
0.01883792420871255 -0.01837327609653618 0.0
0.015634170678666015 -0.049195670359672684 0.0
0.01639469791179394 -0.04577161860609373 0.0
0.017740292518737377 -0.02773887690455256 0.0
0.015022046582916393 -0.04901921542796622 0.0
0.015403236938659581 -0.04929539586709169 0.0
0.023285364580828256 -0.02416945031015438 0.0
0.0067416199036837935 -0.007671126898487764 0.0
0.019476749691365893 -0.04393047194389106 0.0
0.014459982300886595 -0.04911303464992059 0.0
0.01809405771655109 -0.04689457213121637 0.0
0.015273470492452906 -0.0493569038328673 0.0
0.01158624309188274 -0.008094273984799642 0.0
0.012292432874768356 -0.02907088214608241 0.0
0.01181735941523469 -0.024302385562333828 0.0
0.012652943006200817 -0.035282012013001005 0.0
0.013637186811952855 -0.045009722750258024 0.0
0.012375068916666575 -0.03131153644335437 0.0
0.013276322880404094 -0.042561232904999254 0.0
0.01681956694202448 -0.04002666571493287 0.0
0.01756723229275887 -0.02288590224662023 0.0
0.01699188868687704 -0.03678226944806448 0.0
0.016167639877877175 -0.04593138636315835 0.0
0.015616619563468295 -0.04885626342207601 0.0
0.014739529311489554 -0.04919646675584687 0.0
0.009091351062956977 -0.03852631705159884 0.0
0.00829610494702249 -0.03497375047490549 0.0
0.010817356243475244 -0.044882025946081934 0.0
0.024142956759577616 -0.02014990333629014 0.0
0.021963270905842415 -0.037669983028302 0.0
0.01948209585669005 -0.044302081876733915 0.0
0.022299249355291966 -0.034137731546903465 0.0
0.015951092760223787 -0.04751636369799571 0.0
0.013514733554887057 -0.048507641358094496 0.0
0.01907686083120376 -0.018957514212110352 0.0
0.01765807282891504 -0.02264926115735675 0.0
0.011897493885146822 -0.04655033570756881 0.0
0.006052269173497145 -0.01379158494151123 0.0
0.02465788997026206 -0.013328394741340616 0.0
0.006631333154179918 -0.02529910833021265 0.0
0.015321987880478845 -0.04922242788852906 0.0
0.014828349559982893 -0.04918958327622018 0.0
0.015901213282767043 -0.048409549375022586 0.0
0.020416776015333354 -0.04088140763148859 0.0
0.02307236656329821 -0.02893824528726662 0.0
0.014838884236817222 -0.049243569550698994 0.0
0.00639987328200239 -0.022911765958213887 0.0
0.024891414478641818 -0.013433981004838889 0.0
0.02475014943426213 -0.008741612959263272 0.0
0.024038677842853004 -0.02024015119404639 0.0
0.009461628683780683 -0.039523454034500465 0.0
0.010147016266812314 -0.04242909889824417 0.0
0.01133217478351989 -0.013999930525595288 0.0
0.005803967119604986 -0.018856184397150214 0.0
0.01975741919385561 -0.024869767422235126 0.0
0.009965956275601224 -0.04301201938879272 0.0
0.013145471841606957 -0.037938285595549674 0.0
0.01376816263881185 -0.044499049614303406 0.0
0.012896081659770513 -0.034281531586405824 0.0
0.005374561160856544 -0.012531573810884588 0.0
0.023354073482344313 -0.02915379987604415 0.0
0.014026898827799927 -0.04646232541198981 0.0
0.018096577116816906 -0.04138623571071535 0.0
0.01690940834072392 -0.046655751145254575 0.0
0.018564239238347196 -0.03819270324994077 0.0
0.01975897182556931 -0.024989063703730913 0.0
0.016699177201311435 -0.0486889407717593 0.0
0.012691736062627315 -0.025934936815932938 0.0
0.021079704367542935 -0.040221414958544116 0.0
0.02190549855361653 -0.03707515858974577 0.0
0.018808487660138543 -0.045972295190492896 0.0
0.021000352564005453 -0.014155179731580226 0.0
0.012673714757534092 -0.013671960875661561 0.0
0.013187664134210353 -0.048240639310507316 0.0
0.016941497394347416 -0.046573646342470694 0.0
0.007950894626287798 -0.036358609098655 0.0
0.0071395132794545395 -0.03253091745329819 0.0
0.016448674044375 -0.048230674080036284 0.0
0.012334169625891386 -0.021923012316032976 0.0
0.020523581739704456 -0.03056335723460722 0.0
0.017326634718583533 -0.012279158873064033 0.0
0.017702970463460154 -0.0477320193019558 0.0
0.021430644897946903 -0.007231492482155103 0.0
0.01111074495368244 -0.045312467643343395 0.0
0.006577291434907672 -0.028108013194862176 0.0
0.016103767185869092 -0.04882489902433801 0.0
0.011876825695820183 -0.0468274500584889 0.0
0.01737384597488917 -0.044681855121941935 0.0
0.022895664695081423 -0.03404613735492959 0.0
0.015125042272720868 -0.049413043879203054 0.0
0.015680508107604726 -0.008067225503181567 0.0
0.014109828230165359 -0.04844579841275477 0.0
0.014828613191984249 -0.047758582011485626 0.0
0.014098406660308437 -0.027986073733093912 0.0
0.01439797926304373 -0.040292303771081873 0.0
0.014227510029385873 -0.032252662779963005 0.0
0.014518592542430632 -0.043122716209150966 0.0
0.005633398339428133 -0.019630993906392606 0.0
0.016051138800566373 -0.007838585489445398 0.0
0.019058808786222882 -0.045721514851666256 0.0
0.015148200889150918 -0.04940948793396033 0.0
0.014700588463223214 -0.049229199512830474 0.0
0.011984842592456814 -0.010724663143886209 0.0
0.0246680294377467 -0.022938328199972578 0.0
0.01920162745906256 -0.03056990460806143 0.0
0.019248538205191488 -0.03438032070752568 0.0
0.01785710654069288 -0.04210457894258478 0.0
0.011896619325327012 -0.03847906620616186 0.0
0.012360877187860445 -0.041596366463473144 0.0
0.013541198031545763 -0.04690781854874759 0.0
0.006881536383713922 -0.0322623101370733 0.0
0.006202851496281629 -0.02798905645613314 0.0
0.012618360251573677 -0.045145780519768204 0.0
0.010839759627697726 -0.03551450622671851 0.0
0.011354654746996233 -0.039018361736320194 0.0
0.017513958775487556 -0.030115210049936704 0.0
0.016972056789278264 -0.01288517786154669 0.0
0.008933600160059856 -0.008116891729515777 0.0
0.020951674955057016 -0.006983185484647712 0.0
0.015907992690810193 -0.043091829088963654 0.0
0.01632828272947449 -0.03243135942281601 0.0
0.015570435399215671 -0.047674494100828 0.0
0.016069598683436822 -0.040237174452406745 0.0
0.016422023370393626 -0.027784798769723774 0.0
0.023569806927660104 -0.02676170149936216 0.0
0.009137528016542657 -0.006184043241035789 0.0
0.019261221948818536 -0.03744415154979573 0.0
0.017961491613677563 -0.044142397649496644 0.0
0.019724400111167332 -0.03377018163554296 0.0
0.014271777654714147 -0.03643980711136958 0.0
0.014579786013022138 -0.04348200628499123 0.0
0.0141562217725239 -0.03257459043090013 0.0
0.016599231608762723 -0.04873087861492932 0.0
0.014656783987274954 -0.04577649447105006 0.0
0.010690273321924727 -0.03399990711866874 0.0
0.01025526413692484 -0.029883671048180575 0.0
0.01789900936493559 -0.04752193472875782 0.0
0.015591428577406113 -0.04919736053856737 0.0
0.012747461213499737 -0.020519620288849894 0.0
0.014181583710949297 -0.022648887269717723 0.0
0.01390333781574212 -0.017653253527557977 0.0
0.013356313851201817 -0.04725268437177509 0.0
0.01424393067260381 -0.027678325737514616 0.0
0.007969056480094954 -0.03658792598675873 0.0
0.008886162398346954 -0.03993204139812003 0.0
0.015225622858671047 -0.04923216895767923 0.0
0.0229409683680955 -0.03215429359437333 0.0
0.020137413490207454 -0.0430584327914775 0.0
0.011705683172710032 -0.042905894274221264 0.0
0.011101246106915397 -0.03998793960813017 0.0
0.00973583723328631 -0.02340286049782283 0.0
0.025568785701800857 -0.006396824864904753 0.0
0.005159358589416262 -0.008367628126605502 0.0
0.016054130480874514 -0.0173323667268526 0.0
0.01578073575954339 -0.048401259371293616 0.0
0.014846845984931868 -0.04758032785336944 0.0
0.014511184388888564 -0.048135568358799896 0.0
0.013352368297668796 -0.008076325963331072 0.0
0.013661684169847824 -0.04872773131989582 0.0
0.025031540919590884 -0.017385203989193257 0.0
0.014385761308317336 -0.02282104442975199 0.0
0.020013507671919877 -0.01185381909084964 0.0
0.013790878510081818 -0.04794176415041075 0.0
0.01464970263772561 -0.04008229413372147 0.0
0.014796508474785983 -0.04599731094848177 0.0
0.014523943657701918 -0.03687056820514671 0.0
0.009855485447923456 -0.020881042156465305 0.0
0.010037675921507255 -0.029103827373461153 0.0
0.009658286495872335 -0.024517286581058992 0.0
0.01254386586944931 -0.04498258595154816 0.0
0.011901567282468415 -0.04249074259160246 0.0
0.015398748973936343 -0.04876342984449287 0.0
0.012100095364243401 -0.04734779413768698 0.0
0.021014006019677043 -0.019520796436865755 0.0
0.021197473422541822 -0.02794001650823838 0.0
0.019377688914245923 -0.04027710431338002 0.0
0.0146749501308755 -0.04841411975357998 0.0
0.01700314318168236 -0.04766754195287779 0.0
0.005044400076144422 -0.022874635037472668 0.0
0.009204405311199494 -0.019162464831138138 0.0
0.009668218216621524 -0.01647966650879276 0.0
0.01759855277464375 -0.025172308672969157 0.0
0.016729593573794405 -0.04147166897685275 0.0
0.017019198142544087 -0.03841446570303356 0.0
0.016094926525951226 -0.04678331211748753 0.0
0.01873944839975674 -0.04326383586334713 0.0
0.013777226582083213 -0.04163934061933777 0.0
0.014366270028503514 -0.046925698979250786 0.0
0.013548164363040524 -0.03857217799362631 0.0
0.02489637601120475 -0.011014556540068377 0.0
0.015064373631989524 -0.04894400436963973 0.0
0.017650064608374014 -0.03840409887278009 0.0
0.017826477860533707 -0.03515891411379099 0.0
0.016723167718741185 -0.04500317652288598 0.0
0.01630293471508677 -0.04444611207524107 0.0
0.011093165472475347 -0.045769360543129585 0.0
0.015421251005871908 -0.04929767720870421 0.0
0.016581573663613042 -0.041833842616953 0.0
0.017261250872131297 -0.030123914604730694 0.0
0.017203590136595344 -0.020328082003751805 0.0
0.020290344436584687 -0.04272497505434976 0.0
0.009362965306398928 -0.011200047445817816 0.0
0.020548819698482306 -0.010613253664227603 0.0
0.022454139151815506 -0.036121237351287895 0.0
0.008399414302224125 -0.018405770219136024 0.0
0.01397328428241679 -0.0487030727625176 0.0
0.0208003181022577 -0.01613089769521136 0.0
0.02020266989064455 -0.016369619700708434 0.0