<VTKFile type="UnstructuredGrid"  version="0.1">
<UnstructuredGrid>
<Piece NumberOfPoints="713" NumberOfCells="1304">
<Points>
<DataArray type="Float64" NumberOfComponents="3" format="ascii">
0.0 0.0 0.0
10.0 0.0 0.0
10.0 2.0 0.0
5.0 2.0 0.0
0.0 2.0 0.0
0.199999999999856 0.0 0.0
0.3999999999996677 0.0 0.0
0.5999999999994683 0.0 0.0
0.7999999999993286 0.0 0.0
0.9999999999991888 0.0 0.0
1.199999999999033 0.0 0.0
1.399999999998576 0.0 0.0
1.599999999997992 0.0 0.0
1.799999999997408 0.0 0.0
1.999999999996825 0.0 0.0
2.199999999996241 0.0 0.0
2.399999999995657 0.0 0.0
2.599999999995073 0.0 0.0
2.79999999999449 0.0 0.0
2.999999999993906 0.0 0.0
3.199999999993322 0.0 0.0
3.399999999992738 0.0 0.0
3.599999999992154 0.0 0.0
3.799999999991571 0.0 0.0
3.999999999991022 0.0 0.0
4.199999999991187 0.0 0.0
4.399999999991491 0.0 0.0
4.599999999991795 0.0 0.0
4.799999999992099 0.0 0.0
4.999999999992403 0.0 0.0
5.199999999992706 0.0 0.0
5.39999999999301 0.0 0.0
5.599999999993313 0.0 0.0
5.799999999993618 0.0 0.0
5.999999999993922 0.0 0.0
6.199999999994227 0.0 0.0
6.39999999999453 0.0 0.0
6.599999999994833 0.0 0.0
6.799999999995138 0.0 0.0
6.999999999995442 0.0 0.0
7.199999999995747 0.0 0.0
7.39999999999605 0.0 0.0
7.599999999996353 0.0 0.0
7.799999999996658 0.0 0.0
7.999999999996962 0.0 0.0
8.199999999997265 0.0 0.0
8.399999999997569 0.0 0.0
8.599999999997873 0.0 0.0
8.799999999998176 0.0 0.0
8.99999999999848 0.0 0.0
9.199999999998786 0.0 0.0
9.399999999999089 0.0 0.0
9.599999999999392 0.0 0.0
9.799999999999697 0.0 0.0
10.0 0.1999999999996293 0.0
10.0 0.3999999999991157 0.0
10.0 0.5999999999985328 0.0
10.0 0.7999999999979498 0.0
10.0 0.9999999999973885 0.0
10.0 1.199999999997894 0.0
10.0 1.39999999999842 0.0
10.0 1.599999999998947 0.0
10.0 1.799999999999474 0.0
9.799999999999999 2.0 0.0
9.6 2.0 0.0
9.399999999999999 2.0 0.0
9.2 2.0 0.0
8.999999999999998 2.0 0.0
8.799999999999999 2.0 0.0
8.599999999999998 2.0 0.0
8.399999999999999 2.0 0.0
8.2 2.0 0.0
7.999999999999998 2.0 0.0
7.799999999999999 2.0 0.0
7.599999999999999 2.0 0.0
7.399999999999999 2.0 0.0
7.199999999999999 2.0 0.0
7.0 2.0 0.0
6.799999999999999 2.0 0.0
6.6 2.0 0.0
6.399999999999999 2.0 0.0
6.199999999999999 2.0 0.0
5.999999999999999 2.0 0.0
5.8 2.0 0.0
5.6 2.0 0.0
5.399999999999999 2.0 0.0
5.199999999999999 2.0 0.0
4.8 2.0 0.0
4.6 2.0 0.0
4.399999999999999 2.0 0.0
4.199999999999998 2.0 0.0
3.999999999999999 2.0 0.0
3.799999999999999 2.0 0.0
3.599999999999999 2.0 0.0
3.399999999999999 2.0 0.0
3.199999999999998 2.0 0.0
2.999999999999999 2.0 0.0
2.799999999999999 2.0 0.0
2.599999999999999 2.0 0.0
2.399999999999999 2.0 0.0
2.199999999999999 2.0 0.0
2.0 2.0 0.0
1.799999999999999 2.0 0.0
1.599999999999999 2.0 0.0
1.399999999999999 2.0 0.0
1.199999999999999 2.0 0.0
0.9999999999999991 2.0 0.0
0.7999999999999998 2.0 0.0
0.5999999999999996 2.0 0.0
0.3999999999999995 2.0 0.0
0.1999999999999993 2.0 0.0
0.0 1.799999999999167 0.0
0.0 1.6 0.0
0.0 1.400000000001387 0.0
0.0 1.200000000002774 0.0
0.0 1.000000000004117 0.0
0.0 0.8000000000033287 0.0
0.0 0.6000000000024965 0.0
0.0 0.4000000000016644 0.0
0.0 0.200000000000832 0.0
1.499207686858938 0.9671416246672391 0.0
2.690335006295381 0.9619521672166851 0.0
3.892537609238439 1.007271393615351 0.0
8.916602958236062 0.9848120741100651 0.0
7.714518201951718 1.024234589865042 0.0
6.514518201951581 1.024234589865268 0.0
5.299999999999998 1.000000000000349 0.0
0.7620577975594133 1.201991596673393 0.0
4.61755859746166 1.240410629378135 0.0
2.099999999996533 0.6749999999988996 0.0
3.289480163184942 0.6802242156869155 0.0
8.299999999999976 1.325000000000064 0.0
7.110519836808121 1.319775784312006 0.0
5.893184537067197 1.292851873188582 0.0
3.268568008578649 1.341967835735878 0.0
2.118368267083699 1.321829331075689 0.0
5.930896443153832 0.6493414313150682 0.0
7.106926174231782 0.6329785805444448 0.0
8.306926174233002 0.6329785805444098 0.0
4.427960725065653 0.6389803625370323 0.0
0.9828791719046732 0.6520555711814596 0.0
9.383333333333349 0.6166666666667164 0.0
9.383333333333326 1.383333333333367 0.0
4.974443803660211 0.5526668589022862 0.0
1.248084267804327 1.464555585366204 0.0
4.139486343919472 1.468449088519687 0.0
5.077806736162063 1.478342020848787 0.0
1.629462398503482 0.5098631373669138 0.0
2.579462070540726 0.5133714280880515 0.0
3.770778974032556 0.5099482598296803 0.0
8.764748922637567 1.526880805960684 0.0
7.820537929455645 1.486628571911716 0.0
6.632254923791462 1.492045881343967 0.0
2.796478414430566 1.477149214423874 0.0
6.403521585563812 0.5228507855762514 0.0
7.603521585564883 0.5228507855756581 0.0
8.783559188644787 0.5066440811355862 0.0
0.5060338924245764 0.5082251307884346 0.0
5.451633334958382 0.4799315318847731 0.0
1.683269995544083 1.547372422998862 0.0
0.448590368789599 1.551409631210402 0.0
5.545526974704655 1.582008455135239 0.0
3.666056976948354 1.56999765613834 0.0
0.4385739326402744 0.9352922270094057 0.0
9.58170539854767 0.9922137522194456 0.0
4.93200119575972 0.9247090920592975 0.0
6.20679636316332 1.642443126922768 0.0
7.418963044745086 1.587405313446662 0.0
2.98103695524982 0.412594686552066 0.0
2.420975602092416 1.592770352831584 0.0
7.97902439790374 0.4072296471687943 0.0
6.779024397902082 0.4072296471687297 0.0
1.130444757308209 0.9859238872709168 0.0
0.8901814758011342 1.60566856081121 0.0
4.263670373274499 0.9915754392410991 0.0
3.096698167273431 1.009056907826855 0.0
6.088506433998166 0.9857489435828969 0.0
1.902225037409936 1.003483800311746 0.0
7.288506433998439 0.9857489435828686 0.0
8.498964973312972 1.005823551167602 0.0
2.307571737417198 1.008136792450924 0.0
8.100397971125554 1.000138280273345 0.0
6.900397971125225 1.000138280273792 0.0
3.499307350770321 0.9996496628144824 0.0
5.703656022566558 0.9885479657552226 0.0
4.719420624357892 1.622286409566126 0.0
4.099803549896894 0.3600308081356619 0.0
1.286100671532495 0.3637431910670685 0.0
9.120549139677793 1.655065205594329 0.0
9.11726214008418 0.3400668903113251 0.0
4.642568097328033 0.3514924793220939 0.0
9.630437629189052 0.3309104953729904 0.0
9.674493769554315 1.668196579944218 0.0
1.936458797611609 0.3337070483410596 0.0
3.461817573918652 0.3447876019040473 0.0
8.440152788772068 1.649667667046397 0.0
6.973083089482548 1.643748677366674 0.0
3.126874515006838 1.659115470008545 0.0
6.070607878384977 0.3410183041038941 0.0
7.255014454789089 0.32792256737713 0.0
8.462493615948901 0.3368393217476116 0.0
9.236261261261264 0.9276047786917867 0.0
5.885444386845415 1.667751020273455 0.0
0.8062340689595878 0.3261579034781319 0.0
2.29463843780282 0.308358158429197 0.0
8.10536156219338 1.691641841570632 0.0
4.041916759198581 0.7211683801597477 0.0
1.324377365289917 0.710525897087282 0.0
9.023167917315867 1.292262965009952 0.0
2.044244009166302 1.693807225416931 0.0
0.7675765545556328 0.8969765944392112 0.0
2.86965991063896 0.7069213925303978 0.0
6.330340089355722 1.293078607468788 0.0
7.530340089355831 1.29307860746885 0.0
2.509347777214458 1.27231292939881 0.0
7.890652222779963 0.7276870706009825 0.0
6.690652222780154 0.7276870706013264 0.0
4.380959112578968 1.65866292149053 0.0
0.3278422400819535 1.233362752678148 0.0
5.754468991464942 0.3469215055361071 0.0
9.69195804401614 0.7000195364707393 0.0
9.691250997975434 1.303243780084337 0.0
5.54324561063747 1.237401556904767 0.0
9.044596057577811 0.6843248705785732 0.0
5.208929198448351 0.3519433027337513 0.0
3.708880196230617 1.249762029554333 0.0
1.713349558540635 1.234899745098077 0.0
4.586522821995393 0.9261740906803194 0.0
5.241145838821565 0.7007005766013242 0.0
1.434457446926135 1.701926055218157 0.0
0.2821921707428039 0.3393165318407161 0.0
3.42846431357046 1.714274134409306 0.0
5.26283485467567 1.710141275531951 0.0
3.966530105129177 1.718376080180638 0.0
4.891301048299285 1.259923533724591 0.0
0.2787500712946937 0.6906723798523376 0.0
1.822166578929051 0.7301892210727335 0.0
8.593276160688786 1.287322908694633 0.0
2.386017956680413 0.7288816957021155 0.0
3.576911792171353 0.7225526638483954 0.0
8.013982043315597 1.271118304297217 0.0
6.82303669320588 1.277631295759485 0.0
2.891837633696712 1.215141906356511 0.0
8.708162366297856 0.7848580936429009 0.0
7.496736072543097 0.7897651325976158 0.0
6.296736072542775 0.7897651325982009 0.0
5.523181420933933 0.7588744249744506 0.0
4.725538117155759 0.6529070682798582 0.0
2.736307197014292 0.273961667653487 0.0
7.663692802980817 1.726038332346062 0.0
6.446842959287713 1.783714797320288 0.0
1.126188383272983 1.743715177525389 0.0
2.64757240694847 1.787239829472812 0.0
6.546646507559373 0.2589894635657943 0.0
7.746646507561152 0.2589894635657218 0.0
4.079302268890254 1.221431431691139 0.0
4.433746883463333 0.2983726043497702 0.0
1.032697650548726 1.318076986199429 0.0
1.309492735411376 1.208980965369829 0.0
3.896105387998365 0.2579746081881307 0.0
9.378751775005455 1.725996478164223 0.0
9.3965279828929 0.2649862374471925 0.0
1.515757555362918 0.2603060454608533 0.0
4.959097093232828 1.726144293543605 0.0
4.912501341257775 0.2529154558175828 0.0
4.342421824442713 1.285376618065631 0.0
7.023506283123107 0.293611963231815 0.0
8.215829626877609 0.2682061590942965 0.0
5.28145265730745 1.291130016052329 0.0
8.693992162747364 1.744100892812201 0.0
0.6256567126095668 1.775064851453201 0.0
0.2724967459749605 1.756941612685287 0.0
8.90781713264278 0.2741674349222226 0.0
7.184202236567151 1.709454269177068 0.0
3.212962614055919 0.2641656831057426 0.0
0.6761590188374282 0.6746441670621973 0.0
1.020489328989316 0.2487299689497893 0.0
1.485017749467193 1.402133856149482 0.0
6.734223224917944 1.790518105434539 0.0
2.657549589911705 0.7636227781082678 0.0
6.542590471647475 1.237213715285722 0.0
7.742745187066703 1.235538225115726 0.0
0.5794341726414672 0.2480285055479751 0.0
1.842901067642841 1.760146518280044 0.0
3.84389577648662 0.7524680119172447 0.0
3.061589173628368 1.407936939342627 0.0
6.144447294584154 0.5911674363009913 0.0
7.344447294585433 0.5911674362995804 0.0
8.544447294586682 0.5911674362982269 0.0
5.491507940982565 0.1734458797927824 0.0
[...]
<PointData Vectors="fields">
<DataArray type="Float64" Name="U" NumberOfComponents="3" format="ascii">
0.0 0.0 0.0
0.028615447156568722 0.0 0.0
0.002411138249615171 -0.005106258496923551 0.0
0.014351168330520876 -0.045780740499003485 0.0
0.026099288913655403 -0.004889380774945359 0.0
0.000282208417555342 -0.0054047729612126325 0.0
0.0008660056008578244 -0.008903841260460517 0.0
0.0013944387990698988 -0.011997547405121484 0.0
0.0018419139321555601 -0.014722643256460905 0.0
0.0022360217817698163 -0.01732319884496169 0.0
0.002618290624388904 -0.019822446011285348 0.0
0.0030048934688036897 -0.022229016694177716 0.0
0.0034306481183710835 -0.024554617974093185 0.0
0.0038719731955403356 -0.026799947931182053 0.0
0.004348612347469825 -0.02894056604690394 0.0
0.004847485091254747 -0.03097572210608851 0.0
0.005387719339477783 -0.032906280860503796 0.0
0.005933039741457301 -0.03471744206783253 0.0
0.00652778879299473 -0.0364092504988096 0.0
0.007116831878965467 -0.03797658693410843 0.0
0.007750910900259479 -0.03941315959293931 0.0
0.008389812789613892 -0.04070833304484733 0.0
0.009067813354640311 -0.04187100599968728 0.0
0.009763844557963107 -0.04286353948453331 0.0
0.010476977577205893 -0.04375464499017317 0.0
0.011232726919292235 -0.04447534778547759 0.0
0.011987261287812242 -0.04503510343009139 0.0
0.012764109636497259 -0.045443876102067224 0.0
0.013525172006396146 -0.04568401432716694 0.0
0.014312415165384125 -0.04577095329865749 0.0
0.015074921858084445 -0.0456963633196682 0.0
0.0158338812855831 -0.04545739016932889 0.0
0.016586089284477787 -0.045061343531991684 0.0
0.017324779368295164 -0.04450336156087384 0.0
0.01803856896311576 -0.043796331169969366 0.0
0.018761698331226265 -0.04294590489908222 0.0
0.019439212426406772 -0.04190726533064556 0.0
0.020115087417182993 -0.04077198531196848 0.0
0.020756206358845383 -0.039491222571526235 0.0
0.021392027331520708 -0.038054117695749054 0.0
0.021989167401428072 -0.03649032476987425 0.0
0.022563178319002966 -0.034806819407770195 0.0
0.023094645340832578 -0.032976832103194936 0.0
0.023614827718573695 -0.0310734169737981 0.0
0.024096120905923116 -0.02905608650944242 0.0
0.02456106113835569 -0.02692624193532622 0.0
0.02498999773970733 -0.024692636230327466 0.0
0.025401639294746974 -0.02237819642444399 0.0
0.025778044128069874 -0.019975068344842827 0.0
0.0261615800753912 -0.017479748128126606 0.0
0.026535680143797827 -0.014895319398708315 0.0
0.026948375571672116 -0.012169754576852113 0.0
0.0274042186222383 -0.009220209724240022 0.0
0.028103003489175764 -0.00572558728901337 0.0
0.02423810936088703 -0.001995570824433859 0.0
0.021367405050570637 -0.0030995323498533315 0.0
0.01875964091004583 -0.0038035191752863228 0.0
0.016360578191372207 -0.0043375452747845804 0.0
0.01403460824304318 -0.004675941653200325 0.0
0.011751824188969934 -0.0048982879392103496 0.0
0.009472329205163593 -0.005033216195139554 0.0
0.007159353301781027 -0.005093791817230746 0.0
0.004804531129826307 -0.005106227493614786 0.0
0.002409294197739509 -0.007508557343526972 0.0
0.0024159281304368236 -0.009942524658556339 0.0
0.002461646456713532 -0.01241565518957863 0.0
0.002567931506730152 -0.01491608444515486 0.0
0.002745286604425494 -0.01740809849270042 0.0
0.002986790900067173 -0.019858185301852016 0.0
0.003295032378902558 -0.022274920265935465 0.0
0.0036540624538485425 -0.024604929648095523 0.0
0.004062579311446609 -0.026847565988501014 0.0
0.004523501801193625 -0.028999031808117613 0.0
0.005000915741964011 -0.031038641459441227 0.0
0.005533112030969066 -0.03297097276395719 0.0
0.006068991809898644 -0.03478566196585325 0.0
0.006653931654499316 -0.0364770651044247 0.0
0.007256923058655388 -0.038046083927388535 0.0
0.007886976951756941 -0.03948142584251991 0.0
0.00852744727809816 -0.040749822306665316 0.0
0.00920749673083309 -0.04193587888148035 0.0
0.009909147419637325 -0.04294026091058159 0.0
0.01061097289477574 -0.04380117257466479 0.0
0.01134581127563147 -0.04451840127797689 0.0
0.012104506082377293 -0.0450717648281654 0.0
0.01283661386186291 -0.045466588054122264 0.0
0.013600522376154056 -0.04570556086990239 0.0
0.015115572547235135 -0.04568254891550929 0.0
0.015842615349088648 -0.04543910876309645 0.0
0.016559029192004276 -0.04503958045694502 0.0
0.017287069238189744 -0.04449101691492205 0.0
0.01800258535277773 -0.04376639439373574 0.0
0.018710210807269152 -0.042892912359346155 0.0
0.01936787659143174 -0.04187968958426512 0.0
0.02003054580252757 -0.04071971834767303 0.0
0.020669556978666067 -0.03942609414947873 0.0
0.021299988228659382 -0.0379912260220865 0.0
0.021890234143697916 -0.036394405352484095 0.0
0.022476178924570017 -0.03472026964269813 0.0
0.023023636214254645 -0.03289320978706681 0.0
0.02354048070974337 -0.03094898098776835 0.0
0.024041493769811354 -0.028892611874455715 0.0
0.024495984456063394 -0.02672962217847661 0.0
0.024893739616574723 -0.02447647505780712 0.0
0.02525801987135118 -0.022128841134231355 0.0
0.025552233400589576 -0.019713740338974606 0.0
0.025786362723613794 -0.017239665457541305 0.0
0.025948278340328267 -0.014742796734721073 0.0
0.026044654658372142 -0.012234406940613994 0.0
0.02609189896373133 -0.009752546901047172 0.0
0.026102914171272557 -0.007302400449629885 0.0
0.023692147938983263 -0.0048906500633461 0.0
0.021322141394258073 -0.004878805410672437 0.0
0.018996912769625254 -0.004823351129471979 0.0
0.01669712679908549 -0.004695397534412742 0.0
0.014405086423864084 -0.0044585961921061144 0.0
0.012070054911062528 -0.0041221356643627825 0.0
0.009661820285126096 -0.003583835556736442 0.0
0.00706238275903312 -0.002839309330261912 0.0
0.003982949170851397 -0.0016020632106924562 0.0
0.013888793415223364 -0.023500390353039344 0.0
0.013910126499297664 -0.03573947897297578 0.0
0.014270584649953802 -0.04360669860423 0.0
0.014315552221594783 -0.018568149389318573 0.0
0.014083483755332032 -0.03210980186847194 0.0
0.014191086964073962 -0.04157392949264602 0.0
0.01430827541330943 -0.045919783942306495 0.0
0.016664692240243747 -0.014275300267430954 0.0
0.014634160963001477 -0.0457676119142293 0.0
0.011167429371675069 -0.030150028101404595 0.0
0.012292826907805981 -0.04025400428958311 0.0
0.010973583503722635 -0.025906347512544843 0.0
0.012010148797984866 -0.037419793798044804 0.0
0.013374614121686619 -0.04448960770727524 0.0
0.016301620741950042 -0.040122612682180855 0.0
0.017183670415566257 -0.030314747707705418 0.0
0.015509420973954169 -0.04433787686957582 0.0
0.01696175071831324 -0.037455525472971526 0.0
0.01800694508535316 -0.025884029337931047 0.0
0.013503185265080469 -0.04538613613201183 0.0
0.010331868069342148 -0.01715063553374176 0.0
0.018529574704352805 -0.012449394966014535 0.0
0.009711840621870168 -0.012608164118218221 0.0
0.01424919369498786 -0.046023583725404806 0.0
0.01934217220107252 -0.020398396166415353 0.0
0.015758378296258854 -0.04451219514039373 0.0
0.014183283888223028 -0.046006143185838524 0.0
0.009098180655463223 -0.02501351001682551 0.0
0.010242311308489392 -0.034716988789474164 0.0
0.012036849706484708 -0.0429684480380812 0.0
0.008461358523470172 -0.02038782470486826 0.0
0.009858250337237851 -0.030995871728465282 0.0
0.011478208706351307 -0.04078391994538467 0.0
0.01779062188594093 -0.03657307160566341 0.0
0.016723424204173266 -0.04212922224100552 0.0
0.018406454543478723 -0.03312925846464215 0.0
0.01970613458888514 -0.02025969251826551 0.0
0.00853432582967141 -0.010679734529827595 0.0
0.015186755993218226 -0.04560519079558769 0.0
0.019835159836472827 -0.025545523272612267 0.0
0.020728532974595096 -0.010330260366367118 0.0
0.013166062071213812 -0.04540769322570969 0.0
0.016993089826748745 -0.042422105025092756 0.0
0.013700646703805379 -0.009949321856491274 0.0
0.014081947634617228 -0.009905613651124585 0.0
0.01427413502440083 -0.04609394410645964 0.0
0.01151912621140839 -0.043083986601656424 0.0
0.00954375691846894 -0.034770840835825476 0.0
0.010098363396890317 -0.038001038203811045 0.0
0.019285405636013463 -0.033243234047444045 0.0
0.019959582466434707 -0.029394818150076767 0.0
0.018033643805490805 -0.039800338310760394 0.0
0.014140029411232347 -0.018997925141024524 0.0
0.02117672039190683 -0.01590915194363974 0.0
0.014240823460341806 -0.04498603945660029 0.0
0.014276338901691584 -0.03895076964986839 0.0
0.014379207728585874 -0.04374233496478184 0.0
0.014243203670966088 -0.028068412061837602 0.0
0.01442115429565927 -0.03598979503782869 0.0
0.014168267365735258 -0.023660264060054774 0.0
0.014273924760514617 -0.03224159842926967 0.0
0.014271593405420325 -0.028150149102799407 0.0
0.014314658248928882 -0.03904156238683975 0.0
0.014224662607708397 -0.04159386554473225 0.0
0.014340708227867602 -0.04511283898640628 0.0
0.014971591955399998 -0.045814280595655205 0.0
0.012113234974474668 -0.044328234666053935 0.0
0.007116798385533063 -0.020958887378598322 0.0
0.006740432305822044 -0.01594549483001955 0.0
0.02195527053245928 -0.016037461120510518 0.0
0.013417173682809378 -0.045703885261576885 0.0
0.022227926425054046 -0.00879849263114935 0.0
0.00637513616255143 -0.009014889989744602 0.0
0.007647332625075556 -0.028385827150496826 0.0
0.010593577844554801 -0.04125741365570895 0.0
0.007458434614833502 -0.024239771903870916 0.0
0.009897220949122407 -0.038401874337266786 0.0
0.018545660098157175 -0.0390653312070791 0.0
0.016905026573630216 -0.04368945684711195 0.0
0.019492228842446356 -0.03617656442118458 0.0
0.021323063789949026 -0.024077085683172454 0.0
0.014885086688555633 -0.014453772493331291 0.0
0.012168717679419206 -0.044408783254542505 0.0
0.006221294562573852 -0.01486176136052275 0.0
0.008005216287544721 -0.03202356311579838 0.0
0.0074873173717817775 -0.027981857160083043 0.0
0.01326709481810812 -0.04420932926263722 0.0
0.011088952778647514 -0.021426150900814563 0.0
0.01087905323847479 -0.017198433446521662 0.0
0.02083716123162616 -0.029472130348717845 0.0
0.013204056226659858 -0.014326063246753017 0.0
0.012078390888106043 -0.037208298373077056 0.0
0.012931767686066907 -0.042577809839152096 0.0
0.011858807845762138 -0.03383463198627273 0.0
0.01645462948899483 -0.03411713202476324 0.0
0.01681472434759246 -0.030350276313567397 0.0
0.015940857917825298 -0.04046390600021549 0.0
0.015815039749934715 -0.04517772483620116 0.0
0.017106599730474303 -0.008695020758939194 0.0
0.016142942720960986 -0.044824684501088174 0.0
0.01746863365456642 -0.008178701659166931 0.0
0.010560035729527411 -0.0086937769647046 0.0
0.01384885659543702 -0.045495370657030396 0.0
0.01772221067420161 -0.01696157020693915 0.0
0.014814931936095066 -0.04588167508605268 0.0
0.015400299637012312 -0.042721865006757044 0.0
0.01660115913866369 -0.025947904636710963 0.0
0.014168125386707772 -0.04573479568973127 0.0
0.014567589290851246 -0.045961820269192315 0.0
0.02178944918101348 -0.022616281272075305 0.0
0.006298780965402632 -0.0071639282256911576 0.0
0.018251922937195995 -0.041029915175462894 0.0
0.013650530544765576 -0.045812189814180254 0.0
0.016993679240674534 -0.04378733229295717 0.0
0.014410807171416826 -0.0460395315584802 0.0
0.010840929699391922 -0.007565169355290898 0.0
0.011520057997098546 -0.027191674822989006 0.0
0.011169834062000982 -0.022499454391186682 0.0
0.011875001113618366 -0.03297940961705611 0.0
0.012818014913320427 -0.04200993244399379 0.0
0.011708860877380102 -0.029041598337971247 0.0
0.012562491160978836 -0.03956422073836707 0.0
0.015757849537615668 -0.037384720933243416 0.0
0.016540855312157165 -0.021173295160360497 0.0
0.016044707659702465 -0.03414923199414389 0.0
0.015300561450847558 -0.04274399096516203 0.0
0.014774216723586244 -0.04553390939348512 0.0
0.013925290522135977 -0.04589912495297444 0.0
0.00857237384911846 -0.03600197092127279 0.0
0.007910167266251433 -0.03247361059045169 0.0
0.010235529685157296 -0.04177744678881125 0.0
0.02259702167691808 -0.01885390175188422 0.0
0.020528565372419403 -0.03521992269197902 0.0
0.01843822382684491 -0.041224865609872666 0.0
0.02101602872614557 -0.031695597812624925 0.0
0.01500485430340266 -0.04434636636403227 0.0
0.012779515459932124 -0.04528202653435633 0.0
0.017852778555227863 -0.0177316097389074 0.0
0.016524518265365412 -0.02118581608633257 0.0
0.011203108412744486 -0.04346351009836698 0.0
0.005770283422327318 -0.012691008892576745 0.0
0.023146862439937684 -0.012260984589166777 0.0
0.006220661389576979 -0.023673299087214574 0.0
0.01444868295541138 -0.04593178033396635 0.0
0.01405575736996916 -0.04589859686354505 0.0
0.014970574988761013 -0.04517575440074452 0.0
0.01928950459392983 -0.038005808071691315 0.0
0.021716808447115262 -0.026835880234252485 0.0
0.014017272127078692 -0.04591469494557407 0.0
0.006111823061004019 -0.021208345125633826 0.0
0.023300795221592494 -0.012568007825068922 0.0
0.023169450772855475 -0.008177114066666007 0.0
0.02258580342210271 -0.018709463056631688 0.0
0.008990390383670542 -0.036728881088864684 0.0
0.009550703698031574 -0.03962435740480838 0.0
0.010599260515499498 -0.013088931939817012 0.0
0.005426682106563294 -0.01764153177363978 0.0
0.018487728443645896 -0.02326610004451691 0.0
0.009445362311414601 -0.04001214288746771 0.0
0.012339800899631532 -0.03544455265267761 0.0
0.013024148302087271 -0.04138995508352563 0.0
0.012201797263672612 -0.03181276645580693 0.0
0.005016142561366529 -0.011715723492755093 0.0
0.02184203627884878 -0.027281334041702424 0.0
0.013194990670780952 -0.04336501440297112 0.0
0.016950499096466523 -0.038651613699267305 0.0
0.016011552665984998 -0.0434358041529887 0.0
0.0175291418192995 -0.03547348559211913 0.0
0.018598077713376435 -0.023138150169474254 0.0
0.015841192783733374 -0.045400000459651105 0.0
0.011885117964034065 -0.024259784315899546 0.0
0.019714833945545223 -0.03758848992133741 0.0
0.020663098131981895 -0.034444163628058785 0.0
0.017818516114805796 -0.04280496271515129 0.0
0.019655512470748544 -0.013239857017279607 0.0
0.011951990945729955 -0.012576468341162564 0.0
0.012458922771988835 -0.04496915686849851 0.0
0.0159177974508 -0.0434734323468403 0.0
0.007507362562988786 -0.033992295872641985 0.0
0.006830124626694363 -0.030194820848199348 0.0
0.015578718629085093 -0.044938487125597615 0.0
0.011646624281197542 -0.020277039386504804 0.0
0.019196063222382886 -0.028591594169231512 0.0
0.01621460455757574 -0.011482696651960674 0.0
0.016638080399636712 -0.04456969531833137 0.0
0.0200619761517033 -0.006763809200217816 0.0
0.010451878310338673 -0.04230993944436818 0.0
0.0061836187597631605 -0.026301010842580762 0.0
0.015166036931469676 -0.04556504270807197 0.0
0.011225327026774238 -0.04362391722352283 0.0
0.016302642738260056 -0.04171183215829383 0.0
0.02139923595502047 -0.031848780511395614 0.0
0.014283256931835981 -0.046079629337341624 0.0
0.014676460686492896 -0.007543822071448936 0.0
0.013336069561871068 -0.04514753364716022 0.0
0.014023736251420178 -0.044482109768640976 0.0
0.013308670163964193 -0.025935852981725734 0.0
0.01361753203359429 -0.03743145805881856 0.0
0.013330812323797361 -0.030159884095470994 0.0
0.013632448228001203 -0.04025244413039581 0.0
0.005387376450093933 -0.018143585229672105 0.0
0.015102444660285486 -0.007145677052993049 0.0
0.017880022973404398 -0.04270044732843895 0.0
0.014315154092815058 -0.04607951805828552 0.0
0.013882688269571657 -0.04590942114527432 0.0
0.011211239500589592 -0.010025194200864573 0.0
0.023183936268934714 -0.021232427051838514 0.0
0.01809451260202285 -0.028349704463041976 0.0
0.018003847269274637 -0.032147737489903086 0.0
0.016883859119400248 -0.03913931793347692 0.0
0.011271301686773358 -0.03573774472963076 0.0
0.011616747429470376 -0.038837957916608 0.0
0.01280324881108836 -0.04367837860126086 0.0
0.006491483345328392 -0.030180292847966278 0.0
0.005945038629629424 -0.02595371544257302 0.0
0.011935413671524333 -0.04200923753319799 0.0
0.010283923602926355 -0.03296900088000384 0.0
0.010678053489193208 -0.03644944392820991 0.0
0.01638952661643978 -0.02816825409332508 0.0
0.01597193449640691 -0.011844754162010543 0.0
0.008455395726426873 -0.007399444393346614 0.0
0.019686295288411218 -0.006365671596512955 0.0
0.014926469935131477 -0.04022596156957821 0.0
0.015286129246350989 -0.03032763665891972 0.0
0.014732384274103465 -0.0444006146697928 0.0
0.015189954287420659 -0.037380690505533054 0.0
0.015480910554414765 -0.025746738791646497 0.0
0.022050225550467383 -0.02504371446903332 0.0
0.008549755695641648 -0.005775707099802581 0.0
0.018016920787461223 -0.03499664970297345 0.0
0.016995942616611207 -0.041059728987874876 0.0
0.018598127091332493 -0.03134092226587653 0.0
0.013381870092676995 -0.0340541547838413 0.0
0.013791665299608267 -0.040428233352569266 0.0
0.013375108644477033 -0.030218167258931238 0.0
0.015623818252848377 -0.0454936053383753 0.0
0.013777901538668631 -0.04272291015075413 0.0
0.010045940573194358 -0.03178959211925425 0.0
0.009728742535827424 -0.027712907542558035 0.0
0.01697150748951019 -0.04427908221013336 0.0
0.014698753016630569 -0.04590101210042596 0.0
0.011928648916622648 -0.019191613203389468 0.0
0.013272555980105794 -0.021184394690960576 0.0
0.013105603930327224 -0.016290048402574364 0.0
0.012580312933695888 -0.04410835543283457 0.0
0.013337383415977276 -0.025889649339901837 0.0
0.007603110600890486 -0.033985672876845466 0.0
0.008381507660769788 -0.03730976827429837 0.0
0.014361006178417185 -0.04592784200918237 0.0
0.02160829802256411 -0.02984301076971111 0.0
0.019045223529358085 -0.04005517345192808 0.0
0.01100563399183836 -0.040057681481977456 0.0
0.010524625969897882 -0.037154939856270386 0.0
0.00911691153653251 -0.02189310014934317 0.0
0.023986482608395233 -0.005838537888633189 0.0
0.0049349846044991616 -0.007633485870483136 0.0
0.015021917318651505 -0.016208772918357716 0.0
0.014933114163896654 -0.04509635253110495 0.0
0.013975811266568711 -0.044405110195532636 0.0
0.01367359105770495 -0.04492311525306946 0.0
0.012580030444123032 -0.007363171477681148 0.0
0.012900779146565199 -0.04544357682713619 0.0
0.023430905744131036 -0.01626653412002362 0.0
0.013565029836511361 -0.02111389987847323 0.0
0.018731817861939292 -0.011086547381657605 0.0
0.01300164040599949 -0.04474883833125385 0.0
0.013743016750128829 -0.03743175309283941 0.0
0.013996792574522932 -0.0428055737288535 0.0
0.013729678107223295 -0.03422915374245342 0.0
0.009223400282406155 -0.01953196256852506 0.0
0.009417567783697301 -0.0272248316345197 0.0
0.009156461991170256 -0.022703155783326615 0.0
0.011793543273607734 -0.04198950019392285 0.0
0.011269012073555688 -0.03950399997829039 0.0
0.014509165087930178 -0.04550030710156711 0.0
0.011416184452575268 -0.044211656744014456 0.0
0.019666862451374605 -0.01826066242072509 0.0
0.0199557477127501 -0.02589724709889398 0.0
0.018306741892900456 -0.037431274904543774 0.0
0.013874050001455782 -0.04511049911043942 0.0
0.016109046085554926 -0.044403666044825325 0.0
0.0047272477257407405 -0.021407027662318286 0.0
0.008719567362673056 -0.01770177322711043 0.0
0.009148032704792251 -0.015196662738281774 0.0
0.016575379522883196 -0.023307716550381746 0.0
0.01568106009650451 -0.03872449871063158 0.0
0.016076751931685986 -0.035675626829883976 0.0
0.01523350505633109 -0.0435525178749403 0.0
0.017560774915975075 -0.040401310220884924 0.0
0.012936345128216767 -0.03887523540252452 0.0
0.01358639409681451 -0.04368971350452577 0.0
0.01281811487400998 -0.0358210831082107 0.0
0.023305754232816615 -0.010303897180489087 0.0
0.014240881199140156 -0.04561740886030773 0.0
0.016523235315193428 -0.035882036688725326 0.0
0.016822088769984242 -0.032633625195078814 0.0
0.015825744514207433 -0.04186662827171485 0.0
0.015303479757992998 -0.04148651512426147 0.0
0.010490145800098424 -0.04262058764100812 0.0
0.01459682990953316 -0.045973143986744 0.0
0.015678096372655385 -0.03887982989900149 0.0
0.01627373064323363 -0.0279306030445524 0.0
0.01619601331014685 -0.018785621682019374 0.0
0.018997843522870518 -0.03991345540189788 0.0
0.008858263092293792 -0.010272827751797659 0.0
0.019314919640689668 -0.009733607366962747 0.0
0.02098481387574628 -0.03378072735130479 0.0
0.007856522057241723 -0.017215791405733146 0.0
0.01320490706825993 -0.04545640961870607 0.0
0.01955430946017607 -0.0148703859032887 0.0
0.018907631810753136 -0.015310847092282509 0.0