<VTKFile type="UnstructuredGrid"  version="0.1">
<UnstructuredGrid>
<Piece NumberOfPoints="713" NumberOfCells="1304">
<Points>
<DataArray type="Float64" NumberOfComponents="3" format="ascii">
0.0 0.0 0.0
10.0 0.0 0.0
10.0 2.0 0.0
5.0 2.0 0.0
0.0 2.0 0.0
0.199999999999856 0.0 0.0
0.3999999999996677 0.0 0.0
0.5999999999994683 0.0 0.0
0.7999999999993286 0.0 0.0
0.9999999999991888 0.0 0.0
1.199999999999033 0.0 0.0
1.399999999998576 0.0 0.0
1.599999999997992 0.0 0.0
1.799999999997408 0.0 0.0
1.999999999996825 0.0 0.0
2.199999999996241 0.0 0.0
2.399999999995657 0.0 0.0
2.599999999995073 0.0 0.0
2.79999999999449 0.0 0.0
2.999999999993906 0.0 0.0
3.199999999993322 0.0 0.0
3.399999999992738 0.0 0.0
3.599999999992154 0.0 0.0
3.799999999991571 0.0 0.0
3.999999999991022 0.0 0.0
4.199999999991187 0.0 0.0
4.399999999991491 0.0 0.0
4.599999999991795 0.0 0.0
4.799999999992099 0.0 0.0
4.999999999992403 0.0 0.0
5.199999999992706 0.0 0.0
5.39999999999301 0.0 0.0
5.599999999993313 0.0 0.0
5.799999999993618 0.0 0.0
5.999999999993922 0.0 0.0
6.199999999994227 0.0 0.0
6.39999999999453 0.0 0.0
6.599999999994833 0.0 0.0
6.799999999995138 0.0 0.0
6.999999999995442 0.0 0.0
7.199999999995747 0.0 0.0
7.39999999999605 0.0 0.0
7.599999999996353 0.0 0.0
7.799999999996658 0.0 0.0
7.999999999996962 0.0 0.0
8.199999999997265 0.0 0.0
8.399999999997569 0.0 0.0
8.599999999997873 0.0 0.0
8.799999999998176 0.0 0.0
8.99999999999848 0.0 0.0
9.199999999998786 0.0 0.0
9.399999999999089 0.0 0.0
9.599999999999392 0.0 0.0
9.799999999999697 0.0 0.0
10.0 0.1999999999996293 0.0
10.0 0.3999999999991157 0.0
10.0 0.5999999999985328 0.0
10.0 0.7999999999979498 0.0
10.0 0.9999999999973885 0.0
10.0 1.199999999997894 0.0
10.0 1.39999999999842 0.0
10.0 1.599999999998947 0.0
10.0 1.799999999999474 0.0
9.799999999999999 2.0 0.0
9.6 2.0 0.0
9.399999999999999 2.0 0.0
9.2 2.0 0.0
8.999999999999998 2.0 0.0
8.799999999999999 2.0 0.0
8.599999999999998 2.0 0.0
8.399999999999999 2.0 0.0
8.2 2.0 0.0
7.999999999999998 2.0 0.0
7.799999999999999 2.0 0.0
7.599999999999999 2.0 0.0
7.399999999999999 2.0 0.0
7.199999999999999 2.0 0.0
7.0 2.0 0.0
6.799999999999999 2.0 0.0
6.6 2.0 0.0
6.399999999999999 2.0 0.0
6.199999999999999 2.0 0.0
5.999999999999999 2.0 0.0
5.8 2.0 0.0
5.6 2.0 0.0
5.399999999999999 2.0 0.0
5.199999999999999 2.0 0.0
4.8 2.0 0.0
4.6 2.0 0.0
4.399999999999999 2.0 0.0
4.199999999999998 2.0 0.0
3.999999999999999 2.0 0.0
3.799999999999999 2.0 0.0
3.599999999999999 2.0 0.0
3.399999999999999 2.0 0.0
3.199999999999998 2.0 0.0
2.999999999999999 2.0 0.0
2.799999999999999 2.0 0.0
2.599999999999999 2.0 0.0
2.399999999999999 2.0 0.0
2.199999999999999 2.0 0.0
2.0 2.0 0.0
1.799999999999999 2.0 0.0
1.599999999999999 2.0 0.0
1.399999999999999 2.0 0.0
1.199999999999999 2.0 0.0
0.9999999999999991 2.0 0.0
0.7999999999999998 2.0 0.0
0.5999999999999996 2.0 0.0
0.3999999999999995 2.0 0.0
0.1999999999999993 2.0 0.0
0.0 1.799999999999167 0.0
0.0 1.6 0.0
0.0 1.400000000001387 0.0
0.0 1.200000000002774 0.0
0.0 1.000000000004117 0.0
0.0 0.8000000000033287 0.0
0.0 0.6000000000024965 0.0
0.0 0.4000000000016644 0.0
0.0 0.200000000000832 0.0
1.499207686858938 0.9671416246672391 0.0
2.690335006295381 0.9619521672166851 0.0
3.892537609238439 1.007271393615351 0.0
8.916602958236062 0.9848120741100651 0.0
7.714518201951718 1.024234589865042 0.0
6.514518201951581 1.024234589865268 0.0
5.299999999999998 1.000000000000349 0.0
0.7620577975594133 1.201991596673393 0.0
4.61755859746166 1.240410629378135 0.0
2.099999999996533 0.6749999999988996 0.0
3.289480163184942 0.6802242156869155 0.0
8.299999999999976 1.325000000000064 0.0
7.110519836808121 1.319775784312006 0.0
5.893184537067197 1.292851873188582 0.0
3.268568008578649 1.341967835735878 0.0
2.118368267083699 1.321829331075689 0.0
5.930896443153832 0.6493414313150682 0.0
7.106926174231782 0.6329785805444448 0.0
8.306926174233002 0.6329785805444098 0.0
4.427960725065653 0.6389803625370323 0.0
0.9828791719046732 0.6520555711814596 0.0
9.383333333333349 0.6166666666667164 0.0
9.383333333333326 1.383333333333367 0.0
4.974443803660211 0.5526668589022862 0.0
1.248084267804327 1.464555585366204 0.0
4.139486343919472 1.468449088519687 0.0
5.077806736162063 1.478342020848787 0.0
1.629462398503482 0.5098631373669138 0.0
2.579462070540726 0.5133714280880515 0.0
3.770778974032556 0.5099482598296803 0.0
8.764748922637567 1.526880805960684 0.0
7.820537929455645 1.486628571911716 0.0
6.632254923791462 1.492045881343967 0.0
2.796478414430566 1.477149214423874 0.0
6.403521585563812 0.5228507855762514 0.0
7.603521585564883 0.5228507855756581 0.0
8.783559188644787 0.5066440811355862 0.0
0.5060338924245764 0.5082251307884346 0.0
5.451633334958382 0.4799315318847731 0.0
1.683269995544083 1.547372422998862 0.0
0.448590368789599 1.551409631210402 0.0
5.545526974704655 1.582008455135239 0.0
3.666056976948354 1.56999765613834 0.0
0.4385739326402744 0.9352922270094057 0.0
9.58170539854767 0.9922137522194456 0.0
4.93200119575972 0.9247090920592975 0.0
6.20679636316332 1.642443126922768 0.0
7.418963044745086 1.587405313446662 0.0
2.98103695524982 0.412594686552066 0.0
2.420975602092416 1.592770352831584 0.0
7.97902439790374 0.4072296471687943 0.0
6.779024397902082 0.4072296471687297 0.0
1.130444757308209 0.9859238872709168 0.0
0.8901814758011342 1.60566856081121 0.0
4.263670373274499 0.9915754392410991 0.0
3.096698167273431 1.009056907826855 0.0
6.088506433998166 0.9857489435828969 0.0
1.902225037409936 1.003483800311746 0.0
7.288506433998439 0.9857489435828686 0.0
8.498964973312972 1.005823551167602 0.0
2.307571737417198 1.008136792450924 0.0
8.100397971125554 1.000138280273345 0.0
6.900397971125225 1.000138280273792 0.0
3.499307350770321 0.9996496628144824 0.0
5.703656022566558 0.9885479657552226 0.0
4.719420624357892 1.622286409566126 0.0
4.099803549896894 0.3600308081356619 0.0
1.286100671532495 0.3637431910670685 0.0
9.120549139677793 1.655065205594329 0.0
9.11726214008418 0.3400668903113251 0.0
4.642568097328033 0.3514924793220939 0.0
9.630437629189052 0.3309104953729904 0.0
9.674493769554315 1.668196579944218 0.0
1.936458797611609 0.3337070483410596 0.0
3.461817573918652 0.3447876019040473 0.0
8.440152788772068 1.649667667046397 0.0
6.973083089482548 1.643748677366674 0.0
3.126874515006838 1.659115470008545 0.0
6.070607878384977 0.3410183041038941 0.0
7.255014454789089 0.32792256737713 0.0
8.462493615948901 0.3368393217476116 0.0
9.236261261261264 0.9276047786917867 0.0
5.885444386845415 1.667751020273455 0.0
0.8062340689595878 0.3261579034781319 0.0
2.29463843780282 0.308358158429197 0.0
8.10536156219338 1.691641841570632 0.0
4.041916759198581 0.7211683801597477 0.0
1.324377365289917 0.710525897087282 0.0
9.023167917315867 1.292262965009952 0.0
2.044244009166302 1.693807225416931 0.0
0.7675765545556328 0.8969765944392112 0.0
2.86965991063896 0.7069213925303978 0.0
6.330340089355722 1.293078607468788 0.0
7.530340089355831 1.29307860746885 0.0
2.509347777214458 1.27231292939881 0.0
7.890652222779963 0.7276870706009825 0.0
6.690652222780154 0.7276870706013264 0.0
4.380959112578968 1.65866292149053 0.0
0.3278422400819535 1.233362752678148 0.0
5.754468991464942 0.3469215055361071 0.0
9.69195804401614 0.7000195364707393 0.0
9.691250997975434 1.303243780084337 0.0
5.54324561063747 1.237401556904767 0.0
9.044596057577811 0.6843248705785732 0.0
5.208929198448351 0.3519433027337513 0.0
3.708880196230617 1.249762029554333 0.0
1.713349558540635 1.234899745098077 0.0
4.586522821995393 0.9261740906803194 0.0
5.241145838821565 0.7007005766013242 0.0
1.434457446926135 1.701926055218157 0.0
0.2821921707428039 0.3393165318407161 0.0
3.42846431357046 1.714274134409306 0.0
5.26283485467567 1.710141275531951 0.0
3.966530105129177 1.718376080180638 0.0
4.891301048299285 1.259923533724591 0.0
0.2787500712946937 0.6906723798523376 0.0
1.822166578929051 0.7301892210727335 0.0
8.593276160688786 1.287322908694633 0.0
2.386017956680413 0.7288816957021155 0.0
3.576911792171353 0.7225526638483954 0.0
8.013982043315597 1.271118304297217 0.0
6.82303669320588 1.277631295759485 0.0
2.891837633696712 1.215141906356511 0.0
8.708162366297856 0.7848580936429009 0.0
7.496736072543097 0.7897651325976158 0.0
6.296736072542775 0.7897651325982009 0.0
5.523181420933933 0.7588744249744506 0.0
4.725538117155759 0.6529070682798582 0.0
2.736307197014292 0.273961667653487 0.0
7.663692802980817 1.726038332346062 0.0
6.446842959287713 1.783714797320288 0.0
1.126188383272983 1.743715177525389 0.0
2.64757240694847 1.787239829472812 0.0
6.546646507559373 0.2589894635657943 0.0
7.746646507561152 0.2589894635657218 0.0
4.079302268890254 1.221431431691139 0.0
4.433746883463333 0.2983726043497702 0.0
1.032697650548726 1.318076986199429 0.0
1.309492735411376 1.208980965369829 0.0
3.896105387998365 0.2579746081881307 0.0
9.378751775005455 1.725996478164223 0.0
9.3965279828929 0.2649862374471925 0.0
1.515757555362918 0.2603060454608533 0.0
4.959097093232828 1.726144293543605 0.0
4.912501341257775 0.2529154558175828 0.0
4.342421824442713 1.285376618065631 0.0
7.023506283123107 0.293611963231815 0.0
8.215829626877609 0.2682061590942965 0.0
5.28145265730745 1.291130016052329 0.0
8.693992162747364 1.744100892812201 0.0
0.6256567126095668 1.775064851453201 0.0
0.2724967459749605 1.756941612685287 0.0
8.90781713264278 0.2741674349222226 0.0
7.184202236567151 1.709454269177068 0.0
3.212962614055919 0.2641656831057426 0.0
0.6761590188374282 0.6746441670621973 0.0
1.020489328989316 0.2487299689497893 0.0
1.485017749467193 1.402133856149482 0.0
6.734223224917944 1.790518105434539 0.0
2.657549589911705 0.7636227781082678 0.0
6.542590471647475 1.237213715285722 0.0
7.742745187066703 1.235538225115726 0.0
0.5794341726414672 0.2480285055479751 0.0
1.842901067642841 1.760146518280044 0.0
3.84389577648662 0.7524680119172447 0.0
3.061589173628368 1.407936939342627 0.0
6.144447294584154 0.5911674363009913 0.0
7.344447294585433 0.5911674362995804 0.0
8.544447294586682 0.5911674362982269 0.0
5.491507940982565 0.1734458797927824 0.0
[...]
<PointData Vectors="fields">
<DataArray type="Float64" Name="U" NumberOfComponents="3" format="ascii">
0.0 0.0 0.0
0.02861725924375085 0.0 0.0
0.002323767366944119 -0.005205252368602414 0.0
0.014304873808870435 -0.045788600389099154 0.0
0.025999065083751834 -0.004944688838436064 0.0
0.00027829832846822567 -0.005416815572692439 0.0
0.0008653396572838138 -0.008920789018257052 0.0
0.0013967970739815982 -0.012010814267899118 0.0
0.0018442155302008116 -0.014729583696403661 0.0
0.0022350103169562013 -0.017320737634395646 0.0
0.0026104919075994742 -0.01980934871254744 0.0
0.0029872785984094543 -0.022205201275094174 0.0
0.0033997688751041524 -0.024520255202695827 0.0
0.003825252520385629 -0.026755631903053738 0.0
0.004284012727098762 -0.02888805855581107 0.0
0.004764635532009161 -0.030917317351657418 0.0
0.005287960234775695 -0.032844100927345486 0.0
0.005820742435463691 -0.03465413866555655 0.0
0.006408066244985546 -0.03634691419581214 0.0
0.006996015038537936 -0.03791656377566988 0.0
0.00763383109786313 -0.03935609970124058 0.0
0.008278426031200275 -0.040654410411523886 0.0
0.008960018264385151 -0.041819716382768185 0.0
0.009651423233153551 -0.042815531036001164 0.0
0.010353221121019501 -0.04370981091798338 0.0
0.01108765028391157 -0.04443512480892819 0.0
0.011817128251366493 -0.04500236496242028 0.0
0.012570157889908957 -0.045421340058856854 0.0
0.013313680688068616 -0.045675163505282064 0.0
0.014089432177994089 -0.04577771452938444 0.0
0.014847185874300298 -0.04572055731099935 0.0
0.015607466270181614 -0.045500544736289054 0.0
0.01636619111104559 -0.04512370983434012 0.0
0.017115857212658146 -0.04458467498344917 0.0
0.01784400748289762 -0.043895730950349446 0.0
0.018583646449500932 -0.043061544427875555 0.0
0.01927732060467023 -0.04203686958633848 0.0
0.01996910575401378 -0.04091324962107788 0.0
0.02062488157328344 -0.03964120290004667 0.0
0.021274011390873027 -0.03820952614343305 0.0
0.021882972036985165 -0.03664836871947325 0.0
0.022467901605156687 -0.03496465079622451 0.0
0.023009013994796136 -0.033132091317443664 0.0
0.023538177235023397 -0.03122440746203596 0.0
0.02402744982496048 -0.029201523249365473 0.0
0.024499532752641 -0.027065690651480834 0.0
0.024935073139887312 -0.024826217506998694 0.0
0.025352427612103465 -0.022506145393704113 0.0
0.025734447461682502 -0.020098078381445603 0.0
0.02612397599905967 -0.017598211641728298 0.0
0.026505211387372184 -0.015008499848269866 0.0
0.026926945027390264 -0.012275502185171656 0.0
0.027393840921729612 -0.009313312987121791 0.0
0.02810759351257472 -0.005790811882522621 0.0
0.0241981871868299 -0.002032903501361879 0.0
0.021314573288715073 -0.0031640837095547047 0.0
0.01870260170388317 -0.00388575194251479 0.0
0.016302019276424138 -0.004431069051418227 0.0
0.013974502101598207 -0.004774967833539603 0.0
0.011688234812850898 -0.004998946013494543 0.0
0.009403319065037122 -0.005133237046214835 0.0
0.0070839716317721655 -0.005193072127331274 0.0
0.0047228547292676275 -0.005205282536454054 0.0
0.0023219397675874375 -0.007613124412330234 0.0
0.0023285132249276875 -0.010052025571484446 0.0
0.0023730698130353094 -0.012529061667393962 0.0
0.0024762263553244294 -0.0150321308695233 0.0
0.0026478969463022747 -0.01752651329407493 0.0
0.0028816833895955354 -0.01997972232398531 0.0
0.0031811927592061565 -0.02239995766678817 0.0
0.0035331871523446544 -0.024735621115546266 0.0
0.003937965981651489 -0.02698524052438718 0.0
0.004399952160627902 -0.02914430862207642 0.0
0.004884024626203201 -0.0311914019786111 0.0
0.00542844486644958 -0.03312995154992385 0.0
0.005980397296748001 -0.034948663590146097 0.0
0.0065842938247243285 -0.03664098252099508 0.0
0.007206322114169161 -0.038207626236888365 0.0
0.007853799724607842 -0.03963680548986255 0.0
0.008506595560061395 -0.0408951570498497 0.0
0.009196351155924558 -0.042068925295617725 0.0
0.009902276335205943 -0.04305791110504416 0.0
0.010603668584099715 -0.04390164428528372 0.0
0.011334532673063145 -0.044600387615841994 0.0
0.012086332029660623 -0.045134338179653184 0.0
0.012809975177424106 -0.045510238714708294 0.0
0.013564211775939885 -0.04573060516567343 0.0
0.015059222517944795 -0.04567506870162838 0.0
0.015777333750191132 -0.045418118913567396 0.0
0.01648648003095206 -0.045007525573541235 0.0
0.017208990521417267 -0.04444990343224871 0.0
0.017921232804216987 -0.043718511539723705 0.0
0.01862736651846842 -0.04283936634267187 0.0
0.019285527535718543 -0.041821384653187944 0.0
0.01994931822381682 -0.04065752132500421 0.0
0.020589000559324895 -0.03936031155189409 0.0
0.021218797464606438 -0.03792281301833278 0.0
0.02180641570557832 -0.036325418069729415 0.0
0.022387995155662 -0.03465138260981555 0.0
0.022930924447673258 -0.032827273902717655 0.0
0.023443885053310763 -0.030888047650224723 0.0
0.023942519124199688 -0.028838399548850695 0.0
0.024396690143126763 -0.02668336170936289 0.0
0.02479544848518872 -0.024439169252394928 0.0
0.025160622396814877 -0.02210167271529247 0.0
0.025454988312790576 -0.01969738990321435 0.0
0.02568830128242692 -0.017235071458347757 0.0
0.025849220134664987 -0.014750252912477424 0.0
0.02594487669966906 -0.012254233570409685 0.0
0.02599182055572194 -0.009784383504510651 0.0
0.02600266300453546 -0.007346058888402954 0.0
0.02360353657878994 -0.004945960773953991 0.0
0.021245109769925438 -0.00493409455750583 0.0
0.018931816893564914 -0.004878357187473008 0.0
0.016644978042972162 -0.004748957830174611 0.0
0.014366612572159793 -0.004508071141485397 0.0
0.012045863486055627 -0.004165047350667198 0.0
0.009651273332237083 -0.003616742442427843 0.0
0.007063071962206711 -0.0028607338385326655 0.0
0.003990186461928855 -0.0016117335086847867 0.0
0.013832636425176625 -0.02345635174731755 0.0
0.013823245185399428 -0.03565411461798547 0.0
0.014164110795168676 -0.043535245949964954 0.0
0.014255077724467036 -0.018678091644900353 0.0
0.014000645662240263 -0.03225391477638351 0.0
0.014099795725904063 -0.04169781306906878 0.0
0.014196158682200467 -0.04592935606766948 0.0
0.016606953711221017 -0.01428093756066113 0.0
0.01453287009971628 -0.04572160277836834 0.0
0.011093925131871669 -0.030075246267879163 0.0
0.01218837331645092 -0.040181362032212266 0.0
0.010887340875826238 -0.026029536772254773 0.0
0.011933455635218724 -0.03757232540895295 0.0
0.013302054124042487 -0.04456090397647167 0.0
0.0162115112393483 -0.04004419774604213 0.0
0.01710820853183027 -0.030241291230464366 0.0
0.0153723018639004 -0.044416834046744375 0.0
0.016861682641565533 -0.037603215839819154 0.0
0.017939806750801632 -0.02601047549237224 0.0
0.013369316398856086 -0.045328139806138826 0.0
0.01029909597254897 -0.017140769674843587 0.0
0.018479518541474473 -0.012552431151989429 0.0
0.009644735643460713 -0.01271833154055221 0.0
0.014086812019035807 -0.04600715550746867 0.0
0.01926996581984643 -0.02037289270196764 0.0
0.015660772782415813 -0.04445122182427942 0.0
0.014105701566273946 -0.046000103242092624 0.0
0.009048640796687898 -0.02496399024426516 0.0
0.010142920885964617 -0.034637386958993405 0.0
0.011927600273217176 -0.04290182016871076 0.0
0.008374786249777767 -0.020501256855640002 0.0
0.009762837499922438 -0.03113956083555163 0.0
0.011423239609423765 -0.040920026764549686 0.0
0.017708746790567012 -0.0364902154203892 0.0
0.016595025035395696 -0.042248573389899555 0.0
0.0183192810304132 -0.03327633302641798 0.0
0.019651246652074936 -0.020375701982847185 0.0
0.008516616797573968 -0.01069400063732595 0.0
0.015015432517377154 -0.04563848485831852 0.0
0.019755994410852434 -0.025496155102863103 0.0
0.020653153859301804 -0.010357915098735297 0.0
0.01311144406834398 -0.04544847475957389 0.0
0.016900470904639222 -0.04235286843932862 0.0
0.013661102777960565 -0.009972605782050076 0.0
0.014026155705040642 -0.010010673141176964 0.0
0.01415227709873377 -0.04606816091789868 0.0
0.01148221292204361 -0.04319053210464109 0.0
0.009459305033785982 -0.03492713769292054 0.0
0.009987126401141484 -0.03792880024911796 0.0
0.01920259333281913 -0.03316518601559248 0.0
0.019884237748559165 -0.02953401493546283 0.0
0.017915349647941798 -0.03994115570630268 0.0
0.014089523707312422 -0.018978046977527013 0.0
0.021098666315651177 -0.015907911309554143 0.0
0.014129018084173514 -0.044920783581251164 0.0
0.014182709683928327 -0.038870387364677836 0.0
0.014278844485087431 -0.04383231403314714 0.0
0.01417678086720873 -0.028001472991798303 0.0
0.014334086435707298 -0.036140088082950494 0.0
0.014099217498437795 -0.023777406799720093 0.0
0.01419739093979545 -0.03215925639726847 0.0
0.014194854585355254 -0.028280763483891684 0.0
0.01422501975498289 -0.039185129005702805 0.0
0.014124000235257799 -0.041519371008292734 0.0
0.014233702348878328 -0.045164913200862314 0.0
0.014890255866845574 -0.045784692128209035 0.0
0.011987652336490547 -0.044267529349358944 0.0
0.007087816703393898 -0.02093215211871599 0.0
0.00665753713330008 -0.016058340087026984 0.0
0.021910345154889262 -0.016148299515065485 0.0
0.0132472609535774 -0.045666087939355775 0.0
0.02218739148669437 -0.008886452318718732 0.0
0.006297908888294548 -0.009122311949597344 0.0
0.007581647788129553 -0.02832378672060459 0.0
0.010486005356310276 -0.041193946898222686 0.0
0.007355479250903881 -0.02436150587887274 0.0
0.009837795562625056 -0.038556133859717706 0.0
0.01846169855485903 -0.03898857172495863 0.0
0.016745562886408227 -0.04378655378062607 0.0
0.01939119689660423 -0.036328250791734094 0.0
0.021262948863919825 -0.024203160522729004 0.0
0.014829756686022998 -0.014561284194895975 0.0
0.012130442825161066 -0.044485939619960044 0.0
0.006207975549676415 -0.014863125134095332 0.0
0.007914250282745122 -0.031951229977145154 0.0
0.007377695025354177 -0.028116514482973823 0.0
0.01315234151671758 -0.04414012565739997 0.0
0.011045425588809272 -0.02139353651120206 0.0
0.010810781921941978 -0.01730835088211682 0.0
0.020749886235571172 -0.029408280184331108 0.0
0.01316250970460959 -0.014330262750471244 0.0
0.011978780731612508 -0.0371278807225275 0.0
0.012862845123844602 -0.04268942166555525 0.0
0.011773732667164371 -0.033985600481910995 0.0
0.016375592806769652 -0.03403291256682365 0.0
0.01673647884462639 -0.03048928809640341 0.0
0.01583378987744515 -0.040598085666623096 0.0
0.015726517373817354 -0.04513074340651145 0.0
0.017049696523066444 -0.008728555070725284 0.0
0.015966832626191776 -0.044892143732918444 0.0
0.017415602534166314 -0.008274436465975433 0.0
0.010496084376578068 -0.008800549838329272 0.0
0.01376454899297876 -0.04553032898991642 0.0
0.017668618920088187 -0.017071089521337804 0.0
0.01462538617488327 -0.045893421079766177 0.0
0.015300573386670062 -0.042649341255986926 0.0
0.01653300497864587 -0.02589292177540238 0.0
0.014048835093828307 -0.04568366144409367 0.0
0.014420885764248206 -0.04596840930541782 0.0
0.02170592306486932 -0.022582355752247037 0.0
0.00629148635487434 -0.007179878655410146 0.0
0.018165234717090188 -0.040959395270032055 0.0
0.013594871714374571 -0.04582992481509405 0.0
0.016902957552190845 -0.04372798077455296 0.0
0.014314725535643473 -0.0460132468133602 0.0
0.01081841604159593 -0.007590161748566705 0.0
0.011458920748849261 -0.027129077533876226 0.0
0.011091727965935756 -0.022614003093173553 0.0
0.01179012894291056 -0.03289714114231691 0.0
0.012712541041006675 -0.041939062231144776 0.0
0.011622083274596226 -0.02917592806245664 0.0
0.012489095452805965 -0.0397074078568347 0.0
0.01567251114055554 -0.03730062135409212 0.0
0.016480462632478047 -0.021287609904407166 0.0
0.01595740369700633 -0.03429716999329345 0.0
0.015187436251929589 -0.04285277855102683 0.0
0.014637838766516288 -0.04556948986165832 0.0
0.013780537398026363 -0.045859357025353924 0.0
0.008459591761143609 -0.035929766254339496 0.0
0.007810103416627221 -0.03262606374130243 0.0
0.010207315103521545 -0.04190703481890973 0.0
0.022512569658164703 -0.018838507362249922 0.0
0.020443989577183613 -0.0351439985635808 0.0
0.018301800719932662 -0.04135736187578063 0.0
0.020933519064424772 -0.031842854441584814 0.0
0.014900995755679231 -0.044279303660157865 0.0
0.012622657522619854 -0.04523432773754124 0.0
0.017788036713950166 -0.01771923056274871 0.0
0.0164624928959867 -0.02115482591201622 0.0
0.011089588169443072 -0.043404915288333096 0.0
0.005689320770460485 -0.012803022300675735 0.0
0.023109915868844217 -0.012363228450204542 0.0
0.006184454045801329 -0.023635027375156163 0.0
0.01438164003151852 -0.04592366722374776 0.0
0.013860866267229781 -0.045886290070227057 0.0
0.014868617966781347 -0.04511732038918162 0.0
0.019178454344061027 -0.03815535707120485 0.0
0.0216502328158594 -0.0269700330031929 0.0
0.013931973452413133 -0.045923731822619454 0.0
0.006011400565837262 -0.02132595459287865 0.0
0.023213640735511566 -0.012585082040500928 0.0
0.0230831229264039 -0.008216262304654123 0.0
0.02253836531940386 -0.018825861273387298 0.0
0.008919726329323576 -0.03688783017091062 0.0
0.009438024014111581 -0.03955990101483087 0.0
0.01057069105200593 -0.01309733903496528 0.0
0.005412371791215747 -0.01763245021801143 0.0
0.01841630812951128 -0.02322589785702044 0.0
0.009405899581169799 -0.040159308910331044 0.0
0.012247293579647305 -0.03536092552145234 0.0
0.012949963992776122 -0.04151693531573965 0.0
0.012115689304895285 -0.031957137795343975 0.0
0.005009091431442325 -0.01172653076218074 0.0
0.02175274038298112 -0.02722786428912217 0.0
0.013085847855709772 -0.04329456282142832 0.0
0.016865041080108053 -0.03857054204786247 0.0
0.01587727471896438 -0.043534696300550145 0.0
0.017434857690396308 -0.03562280317082499 0.0
0.018536906627668024 -0.023258532860233598 0.0
0.01563522232428888 -0.04544576576845832 0.0
0.011832372973485427 -0.02421181948694341 0.0
0.019632213261981748 -0.037512183926324376 0.0
0.020569122986665297 -0.03459665379209824 0.0
0.017661887162519135 -0.04291883556657885 0.0
0.01958435747456656 -0.013252031617410428 0.0
0.01189178283347999 -0.012685331714718273 0.0
0.012420913219884925 -0.04502991344922441 0.0
0.01581942242405432 -0.04340497639520158 0.0
0.007401422389958711 -0.03392096708776582 0.0
0.006718024151963827 -0.03034000248223018 0.0
0.015422931107058092 -0.04500042913948692 0.0
0.011575375963553942 -0.020388258547314325 0.0
0.01911585006956608 -0.0285282893062197 0.0
0.016160733404753495 -0.011502142228957547 0.0
0.016551112289068394 -0.04451936096045262 0.0
0.019990771422889634 -0.006809226999029566 0.0
0.010344766480110422 -0.04225087223705126 0.0
0.006133327209002524 -0.026251291761124937 0.0
0.015074263298624182 -0.04552040801372921 0.0
0.011200771700944797 -0.04372282436360531 0.0
0.01620859417828667 -0.041637781193663896 0.0
0.021309598153877028 -0.03177919626458346 0.0
0.014176382931369073 -0.046067282223518274 0.0
0.014633795804567714 -0.007578569723940302 0.0
0.01326965554685962 -0.045197985245096384 0.0
0.013930974450848925 -0.04455372769850663 0.0
0.013232882649037015 -0.02605890370739381 0.0
0.013533036627519458 -0.03758127705962022 0.0
0.013259397081043659 -0.030083960834872227 0.0
0.013533092800852763 -0.04017630979704177 0.0
0.005294143099278588 -0.01825878458052982 0.0
0.01504618968239739 -0.007245686070653649 0.0
0.017791859551826026 -0.042637733412394206 0.0
0.01417739058229804 -0.046063588813826654 0.0
0.013811239547251037 -0.04591917048080771 0.0
0.011183692734477625 -0.010044516961497904 0.0
0.023132771564393084 -0.02135441547621703 0.0
0.01802153561845168 -0.02848359685245453 0.0
0.017924688973282855 -0.03206964207909667 0.0
0.01677657256217909 -0.039281688811158046 0.0
0.011190886793364581 -0.03589256778466274 0.0
0.011511176440135636 -0.038763343510807215 0.0
0.012741993665347487 -0.043770053809376416 0.0
0.006413282722842024 -0.03011637342038165 0.0
0.00582971727910899 -0.026083533873470396 0.0
0.011882135104248353 -0.04213069195568806 0.0
0.010193944415283564 -0.0331194375695426 0.0
0.01057348021821751 -0.036371156411048454 0.0
0.016318877339146567 -0.02810260676702503 0.0
0.01591877373246891 -0.01194919676503672 0.0
0.00838460118254135 -0.00750436720764236 0.0
0.019634997434969746 -0.006449119124037823 0.0
0.014831889454601642 -0.040147888543360113 0.0
0.015213813988140193 -0.03025187817465101 0.0
0.014617855000613359 -0.04447578981618582 0.0
0.015097618064911248 -0.0375288364613643 0.0
0.015411051935395782 -0.025870382466246764 0.0
0.021962862063501967 -0.02499958286022566 0.0
0.008539342762375314 -0.005797017617766449 0.0
0.017936082080963887 -0.03491375010997764 0.0
0.016875196006259235 -0.04119023606393038 0.0
0.018516727631317235 -0.03148393535813836 0.0
0.013298318428546486 -0.03396918929616297 0.0
0.013706237408083044 -0.04056341940398698 0.0
0.0132930899301934 -0.030356178331022426 0.0
0.01554553845810868 -0.045460478040582314 0.0
0.013672701557864987 -0.04265049673328726 0.0
0.009961462013520451 -0.03171206137307995 0.0
0.009632771120667061 -0.02784335736353298 0.0
0.016789236886086474 -0.044364111938692795 0.0
0.014606567221775321 -0.04586494386574294 0.0
0.0118864044807654 -0.0191708127466383 0.0
0.013222267788570526 -0.021152686703713407 0.0
0.013045461127510607 -0.016398918722894267 0.0
0.01246235585440275 -0.04404244650462702 0.0
0.013277513110674218 -0.025833034968255928 0.0
0.0075102974428532055 -0.03414359248358163 0.0
0.008264162265628086 -0.03724168173464689 0.0
0.014250590376096273 -0.045885485793909025 0.0
0.021532597310809667 -0.02998604765744102 0.0
0.018918027950782332 -0.04019704705819258 0.0
0.010897116007932414 -0.039988864970095156 0.0
0.01045268013751302 -0.03731063093580518 0.0
0.009078352380084096 -0.021859352673162254 0.0
0.02395385589681377 -0.005905940493621521 0.0
0.004853878594479856 -0.007738301781912493 0.0
0.014970420783049023 -0.0162038693299528 0.0
0.01480104330117976 -0.04515093737570662 0.0
0.013864425475378098 -0.044335620392297645 0.0
0.013554437725408519 -0.04485697911883702 0.0
0.012520250047653147 -0.007467208382221259 0.0
0.012860775833995107 -0.04548587807678592 0.0
0.023343323798900417 -0.016264694572418314 0.0
0.01349877239371158 -0.02122620485215225 0.0
0.018665532345519747 -0.011109564893051527 0.0
0.012875854694466875 -0.04468428571208861 0.0
0.01365104261748589 -0.03734871681277889 0.0
0.013906937103250257 -0.042912711144305 0.0
0.013644971350401543 -0.034378709801545636 0.0
0.00919063391877261 -0.019510367124146746 0.0
0.00935770391106203 -0.027164052041890933 0.0
0.009067254162307463 -0.02281922396642001 0.0
0.011686744668405339 -0.0419222851090184 0.0
0.011207778289598175 -0.039650142178555496 0.0
0.01440117159434643 -0.0454435590342053 0.0
0.01128647261035045 -0.04415977172651318 0.0
0.019594477821615358 -0.018246192263759703 0.0
0.019889870336884885 -0.02602629605010557 0.0
0.018201937983899158 -0.037579985992265794 0.0
0.013786666632281796 -0.045161833756178126 0.0
0.015951004290245097 -0.04448251048848348 0.0
0.004705650819787209 -0.02138261275961204 0.0
0.008641111723341005 -0.017813229720956114 0.0
0.00907612676527703 -0.015307518251489318 0.0
0.01651162444134242 -0.023426108863449552 0.0
0.015592716681584327 -0.03864263158840905 0.0
0.01598546954504668 -0.035824842602904264 0.0
0.015114526765074207 -0.043647806215373494 0.0
0.0174732068115256 -0.04032582588743578 0.0
0.012836999318413849 -0.03879713257622693 0.0
0.01350577362713193 -0.04378044197929204 0.0
0.012735189515196841 -0.03597351273373628 0.0
0.02321853545613276 -0.010332442931633774 0.0
0.014136133104289577 -0.045647313498397186 0.0
0.016441933123486116 -0.03579680710832951 0.0
0.016737847856679835 -0.03277873925032549 0.0
0.015711254166408506 -0.04198767262672416 0.0
0.015206629432445187 -0.04141101209171705 0.0
0.01046779897565325 -0.042738947346224056 0.0
0.014427731220307344 -0.0459757457432579 0.0
0.015579234228579939 -0.03902309436630496 0.0
0.016200594972732314 -0.028061548148251084 0.0
0.016138431666825218 -0.01889640141450869 0.0
0.018913941206465692 -0.03984142503541032 0.0
0.008789175774025049 -0.010381897701519672 0.0
0.019265754340753803 -0.009829305946138938 0.0
0.020897846456548103 -0.0337068165736062 0.0
0.007833545010538763 -0.017206533615561563 0.0
0.013053971592838618 -0.04540635775899895 0.0
0.01950523407128541 -0.01497765277125563 0.0
0.018839278791151985 -0.015311735810567701 0.0