<VTKFile type="UnstructuredGrid"  version="0.1">
<UnstructuredGrid>
<Piece NumberOfPoints="713" NumberOfCells="1304">
<Points>
<DataArray type="Float64" NumberOfComponents="3" format="ascii">
0.0 0.0 0.0
10.0 0.0 0.0
10.0 2.0 0.0
5.0 2.0 0.0
0.0 2.0 0.0
0.199999999999856 0.0 0.0
0.3999999999996677 0.0 0.0
0.5999999999994683 0.0 0.0
0.7999999999993286 0.0 0.0
0.9999999999991888 0.0 0.0
1.199999999999033 0.0 0.0
1.399999999998576 0.0 0.0
1.599999999997992 0.0 0.0
1.799999999997408 0.0 0.0
1.999999999996825 0.0 0.0
2.199999999996241 0.0 0.0
2.399999999995657 0.0 0.0
2.599999999995073 0.0 0.0
2.79999999999449 0.0 0.0
2.999999999993906 0.0 0.0
3.199999999993322 0.0 0.0
3.399999999992738 0.0 0.0
3.599999999992154 0.0 0.0
3.799999999991571 0.0 0.0
3.999999999991022 0.0 0.0
4.199999999991187 0.0 0.0
4.399999999991491 0.0 0.0
4.599999999991795 0.0 0.0
4.799999999992099 0.0 0.0
4.999999999992403 0.0 0.0
5.199999999992706 0.0 0.0
5.39999999999301 0.0 0.0
5.599999999993313 0.0 0.0
5.799999999993618 0.0 0.0
5.999999999993922 0.0 0.0
6.199999999994227 0.0 0.0
6.39999999999453 0.0 0.0
6.599999999994833 0.0 0.0
6.799999999995138 0.0 0.0
6.999999999995442 0.0 0.0
7.199999999995747 0.0 0.0
7.39999999999605 0.0 0.0
7.599999999996353 0.0 0.0
7.799999999996658 0.0 0.0
7.999999999996962 0.0 0.0
8.199999999997265 0.0 0.0
8.399999999997569 0.0 0.0
8.599999999997873 0.0 0.0
8.799999999998176 0.0 0.0
8.99999999999848 0.0 0.0
9.199999999998786 0.0 0.0
9.399999999999089 0.0 0.0
9.599999999999392 0.0 0.0
9.799999999999697 0.0 0.0
10.0 0.1999999999996293 0.0
10.0 0.3999999999991157 0.0
10.0 0.5999999999985328 0.0
10.0 0.7999999999979498 0.0
10.0 0.9999999999973885 0.0
10.0 1.199999999997894 0.0
10.0 1.39999999999842 0.0
10.0 1.599999999998947 0.0
10.0 1.799999999999474 0.0
9.799999999999999 2.0 0.0
9.6 2.0 0.0
9.399999999999999 2.0 0.0
9.2 2.0 0.0
8.999999999999998 2.0 0.0
8.799999999999999 2.0 0.0
8.599999999999998 2.0 0.0
8.399999999999999 2.0 0.0
8.2 2.0 0.0
7.999999999999998 2.0 0.0
7.799999999999999 2.0 0.0
7.599999999999999 2.0 0.0
7.399999999999999 2.0 0.0
7.199999999999999 2.0 0.0
7.0 2.0 0.0
6.799999999999999 2.0 0.0
6.6 2.0 0.0
6.399999999999999 2.0 0.0
6.199999999999999 2.0 0.0
5.999999999999999 2.0 0.0
5.8 2.0 0.0
5.6 2.0 0.0
5.399999999999999 2.0 0.0
5.199999999999999 2.0 0.0
4.8 2.0 0.0
4.6 2.0 0.0
4.399999999999999 2.0 0.0
4.199999999999998 2.0 0.0
3.999999999999999 2.0 0.0
3.799999999999999 2.0 0.0
3.599999999999999 2.0 0.0
3.399999999999999 2.0 0.0
3.199999999999998 2.0 0.0
2.999999999999999 2.0 0.0
2.799999999999999 2.0 0.0
2.599999999999999 2.0 0.0
2.399999999999999 2.0 0.0
2.199999999999999 2.0 0.0
2.0 2.0 0.0
1.799999999999999 2.0 0.0
1.599999999999999 2.0 0.0
1.399999999999999 2.0 0.0
1.199999999999999 2.0 0.0
0.9999999999999991 2.0 0.0
0.7999999999999998 2.0 0.0
0.5999999999999996 2.0 0.0
0.3999999999999995 2.0 0.0
0.1999999999999993 2.0 0.0
0.0 1.799999999999167 0.0
0.0 1.6 0.0
0.0 1.400000000001387 0.0
0.0 1.200000000002774 0.0
0.0 1.000000000004117 0.0
0.0 0.8000000000033287 0.0
0.0 0.6000000000024965 0.0
0.0 0.4000000000016644 0.0
0.0 0.200000000000832 0.0
1.499207686858938 0.9671416246672391 0.0
2.690335006295381 0.9619521672166851 0.0
3.892537609238439 1.007271393615351 0.0
8.916602958236062 0.9848120741100651 0.0
7.714518201951718 1.024234589865042 0.0
6.514518201951581 1.024234589865268 0.0
5.299999999999998 1.000000000000349 0.0
0.7620577975594133 1.201991596673393 0.0
4.61755859746166 1.240410629378135 0.0
2.099999999996533 0.6749999999988996 0.0
3.289480163184942 0.6802242156869155 0.0
8.299999999999976 1.325000000000064 0.0
7.110519836808121 1.319775784312006 0.0
5.893184537067197 1.292851873188582 0.0
3.268568008578649 1.341967835735878 0.0
2.118368267083699 1.321829331075689 0.0
5.930896443153832 0.6493414313150682 0.0
7.106926174231782 0.6329785805444448 0.0
8.306926174233002 0.6329785805444098 0.0
4.427960725065653 0.6389803625370323 0.0
0.9828791719046732 0.6520555711814596 0.0
9.383333333333349 0.6166666666667164 0.0
9.383333333333326 1.383333333333367 0.0
4.974443803660211 0.5526668589022862 0.0
1.248084267804327 1.464555585366204 0.0
4.139486343919472 1.468449088519687 0.0
5.077806736162063 1.478342020848787 0.0
1.629462398503482 0.5098631373669138 0.0
2.579462070540726 0.5133714280880515 0.0
3.770778974032556 0.5099482598296803 0.0
8.764748922637567 1.526880805960684 0.0
7.820537929455645 1.486628571911716 0.0
6.632254923791462 1.492045881343967 0.0
2.796478414430566 1.477149214423874 0.0
6.403521585563812 0.5228507855762514 0.0
7.603521585564883 0.5228507855756581 0.0
8.783559188644787 0.5066440811355862 0.0
0.5060338924245764 0.5082251307884346 0.0
5.451633334958382 0.4799315318847731 0.0
1.683269995544083 1.547372422998862 0.0
0.448590368789599 1.551409631210402 0.0
5.545526974704655 1.582008455135239 0.0
3.666056976948354 1.56999765613834 0.0
0.4385739326402744 0.9352922270094057 0.0
9.58170539854767 0.9922137522194456 0.0
4.93200119575972 0.9247090920592975 0.0
6.20679636316332 1.642443126922768 0.0
7.418963044745086 1.587405313446662 0.0
2.98103695524982 0.412594686552066 0.0
2.420975602092416 1.592770352831584 0.0
7.97902439790374 0.4072296471687943 0.0
6.779024397902082 0.4072296471687297 0.0
1.130444757308209 0.9859238872709168 0.0
0.8901814758011342 1.60566856081121 0.0
4.263670373274499 0.9915754392410991 0.0
3.096698167273431 1.009056907826855 0.0
6.088506433998166 0.9857489435828969 0.0
1.902225037409936 1.003483800311746 0.0
7.288506433998439 0.9857489435828686 0.0
8.498964973312972 1.005823551167602 0.0
2.307571737417198 1.008136792450924 0.0
8.100397971125554 1.000138280273345 0.0
6.900397971125225 1.000138280273792 0.0
3.499307350770321 0.9996496628144824 0.0
5.703656022566558 0.9885479657552226 0.0
4.719420624357892 1.622286409566126 0.0
4.099803549896894 0.3600308081356619 0.0
1.286100671532495 0.3637431910670685 0.0
9.120549139677793 1.655065205594329 0.0
9.11726214008418 0.3400668903113251 0.0
4.642568097328033 0.3514924793220939 0.0
9.630437629189052 0.3309104953729904 0.0
9.674493769554315 1.668196579944218 0.0
1.936458797611609 0.3337070483410596 0.0
3.461817573918652 0.3447876019040473 0.0
8.440152788772068 1.649667667046397 0.0
6.973083089482548 1.643748677366674 0.0
3.126874515006838 1.659115470008545 0.0
6.070607878384977 0.3410183041038941 0.0
7.255014454789089 0.32792256737713 0.0
8.462493615948901 0.3368393217476116 0.0
9.236261261261264 0.9276047786917867 0.0
5.885444386845415 1.667751020273455 0.0
0.8062340689595878 0.3261579034781319 0.0
2.29463843780282 0.308358158429197 0.0
8.10536156219338 1.691641841570632 0.0
4.041916759198581 0.7211683801597477 0.0
1.324377365289917 0.710525897087282 0.0
9.023167917315867 1.292262965009952 0.0
2.044244009166302 1.693807225416931 0.0
0.7675765545556328 0.8969765944392112 0.0
2.86965991063896 0.7069213925303978 0.0
6.330340089355722 1.293078607468788 0.0
7.530340089355831 1.29307860746885 0.0
2.509347777214458 1.27231292939881 0.0
7.890652222779963 0.7276870706009825 0.0
6.690652222780154 0.7276870706013264 0.0
4.380959112578968 1.65866292149053 0.0
0.3278422400819535 1.233362752678148 0.0
5.754468991464942 0.3469215055361071 0.0
9.69195804401614 0.7000195364707393 0.0
9.691250997975434 1.303243780084337 0.0
5.54324561063747 1.237401556904767 0.0
9.044596057577811 0.6843248705785732 0.0
5.208929198448351 0.3519433027337513 0.0
3.708880196230617 1.249762029554333 0.0
1.713349558540635 1.234899745098077 0.0
4.586522821995393 0.9261740906803194 0.0
5.241145838821565 0.7007005766013242 0.0
1.434457446926135 1.701926055218157 0.0
0.2821921707428039 0.3393165318407161 0.0
3.42846431357046 1.714274134409306 0.0
5.26283485467567 1.710141275531951 0.0
3.966530105129177 1.718376080180638 0.0
4.891301048299285 1.259923533724591 0.0
0.2787500712946937 0.6906723798523376 0.0
1.822166578929051 0.7301892210727335 0.0
8.593276160688786 1.287322908694633 0.0
2.386017956680413 0.7288816957021155 0.0
3.576911792171353 0.7225526638483954 0.0
8.013982043315597 1.271118304297217 0.0
6.82303669320588 1.277631295759485 0.0
2.891837633696712 1.215141906356511 0.0
8.708162366297856 0.7848580936429009 0.0
7.496736072543097 0.7897651325976158 0.0
6.296736072542775 0.7897651325982009 0.0
5.523181420933933 0.7588744249744506 0.0
4.725538117155759 0.6529070682798582 0.0
2.736307197014292 0.273961667653487 0.0
7.663692802980817 1.726038332346062 0.0
6.446842959287713 1.783714797320288 0.0
1.126188383272983 1.743715177525389 0.0
2.64757240694847 1.787239829472812 0.0
6.546646507559373 0.2589894635657943 0.0
7.746646507561152 0.2589894635657218 0.0
4.079302268890254 1.221431431691139 0.0
4.433746883463333 0.2983726043497702 0.0
1.032697650548726 1.318076986199429 0.0
1.309492735411376 1.208980965369829 0.0
3.896105387998365 0.2579746081881307 0.0
9.378751775005455 1.725996478164223 0.0
9.3965279828929 0.2649862374471925 0.0
1.515757555362918 0.2603060454608533 0.0
4.959097093232828 1.726144293543605 0.0
4.912501341257775 0.2529154558175828 0.0
4.342421824442713 1.285376618065631 0.0
7.023506283123107 0.293611963231815 0.0
8.215829626877609 0.2682061590942965 0.0
5.28145265730745 1.291130016052329 0.0
8.693992162747364 1.744100892812201 0.0
0.6256567126095668 1.775064851453201 0.0
0.2724967459749605 1.756941612685287 0.0
8.90781713264278 0.2741674349222226 0.0
7.184202236567151 1.709454269177068 0.0
3.212962614055919 0.2641656831057426 0.0
0.6761590188374282 0.6746441670621973 0.0
1.020489328989316 0.2487299689497893 0.0
1.485017749467193 1.402133856149482 0.0
6.734223224917944 1.790518105434539 0.0
2.657549589911705 0.7636227781082678 0.0
6.542590471647475 1.237213715285722 0.0
7.742745187066703 1.235538225115726 0.0
0.5794341726414672 0.2480285055479751 0.0
1.842901067642841 1.760146518280044 0.0
3.84389577648662 0.7524680119172447 0.0
3.061589173628368 1.407936939342627 0.0
6.144447294584154 0.5911674363009913 0.0
7.344447294585433 0.5911674362995804 0.0
8.544447294586682 0.5911674362982269 0.0
5.491507940982565 0.1734458797927824 0.0
[...]
<PointData Vectors="fields">
<DataArray type="Float64" Name="U" NumberOfComponents="3" format="ascii">
0.0 0.0 0.0
0.031152871155017386 0.0 0.0
0.002710679467875748 -0.0056478339601202625 0.0
0.015450901483791845 -0.04975397236975905 0.0
0.028593676272392267 -0.005399213046275027 0.0
0.00030256679259538016 -0.005938575972950109 0.0
0.0009457148146607517 -0.009784516543449593 0.0
0.0015308486282118719 -0.013180226835969113 0.0
0.0020318298739663734 -0.01616965990022982 0.0
0.0024758385598327064 -0.019019959029647236 0.0
0.0029064712804026437 -0.02175741610467761 0.0
0.0033397390330295452 -0.024391292844177716 0.0
0.00381248847128815 -0.02693443216047163 0.0
0.0042986985616102315 -0.02938736742029116 0.0
0.004820236008499439 -0.03172405926374337 0.0
0.005365743864470056 -0.03394429328408322 0.0
0.005959221244243576 -0.03604903211802773 0.0
0.006563101067740666 -0.03802140526985279 0.0
0.007228149747978866 -0.03986100379146057 0.0
0.007892742426278581 -0.041560495464056296 0.0
0.008611981032269522 -0.04311209665170336 0.0
0.009335681414783033 -0.04450315221405518 0.0
0.01009772727300307 -0.04574368878317982 0.0
0.01086580847485271 -0.04679312591143807 0.0
0.011641154730466848 -0.047728516713298724 0.0
0.012446805945586939 -0.0484750281748389 0.0
0.0132408805638178 -0.049046980086180664 0.0
0.014054627713906965 -0.0494559619311426 0.0
0.01485144099650075 -0.04968543134166442 0.0
0.015676510261396524 -0.049751632668573964 0.0
0.01647557631133608 -0.04964755423731552 0.0
0.017271109089993075 -0.049370554299134506 0.0
0.01806007888785916 -0.04892838989833154 0.0
0.018836718436836007 -0.0483160618560903 0.0
0.019590541328701243 -0.0475468598010849 0.0
0.020358796871080054 -0.04662592175697498 0.0
0.021084023824554394 -0.045505434938400244 0.0
0.02181169111229418 -0.04427996585196715 0.0
0.022507401922111092 -0.04289818156598031 0.0
0.023202368701037042 -0.04134600689591617 0.0
0.023859065092808055 -0.03965501544987127 0.0
0.02449324026562199 -0.03783197835351256 0.0
0.025082064372918517 -0.035848164965606145 0.0
0.025658293728094965 -0.03378300903774261 0.0
0.026190768105649204 -0.031593375423839234 0.0
0.02670301785606148 -0.029282016197760316 0.0
0.027173861876284802 -0.026859175973708422 0.0
0.027623607738389615 -0.024349884588854537 0.0
0.028034114527102895 -0.02174610622101655 0.0
0.0284522153775212 -0.019043743353994596 0.0
0.028861668094343224 -0.01624464055994114 0.0
0.029315813199743145 -0.01329095004554703 0.0
0.029820633338000467 -0.010089614190835417 0.0
0.03059594260097069 -0.006280484041468703 0.0
0.02636693351866797 -0.0022147970680780615 0.0
0.023249553657235054 -0.0034404845328021533 0.0
0.020424225057532504 -0.004219762181267051 0.0
0.017826655527068434 -0.004808195864216328 0.0
0.015308206609672512 -0.005179679352544533 0.0
0.012835105946996613 -0.005422416281549158 0.0
0.010364338349128064 -0.005568692835104393 0.0
0.007856910316735527 -0.005634187329865977 0.0
0.0053044404589423465 -0.005647778953978896 0.0
0.002708738784526445 -0.008251236077978178 0.0
0.002716105939410178 -0.010888373118578735 0.0
0.002764819179556547 -0.01356667390231099 0.0
0.0028770446776733676 -0.0162729033881656 0.0
0.0030631282417273005 -0.018969498281164596 0.0
0.0033158315553719004 -0.02162163801430194 0.0
0.0036393129384950165 -0.024238365630976273 0.0
0.004018830895032822 -0.026764132603670006 0.0
0.004454929032361638 -0.029197434870545692 0.0
0.004952320817440915 -0.031533299634732614 0.0
0.005472832392352082 -0.033748333941570084 0.0
0.006057202500249903 -0.035846018336471504 0.0
0.006647954076923979 -0.03781429793630012 0.0
0.007292230830842419 -0.0396458756252312 0.0
0.007953091882032089 -0.04134220185723951 0.0
0.00863819506257295 -0.042891261137952635 0.0
0.009326263155482413 -0.044258122462298516 0.0
0.010051317488757034 -0.04553550364269294 0.0
0.010792264858489995 -0.04661801134310004 0.0
0.011528187819473493 -0.0475481386873616 0.0
0.012296107782037633 -0.04832634939000488 0.0
0.013088136553611344 -0.04893230831354387 0.0
0.013854007082693007 -0.04937248567045714 0.0
0.014656810146934752 -0.04964927871215939 0.0
0.016266405162527635 -0.049675950201030376 0.0
0.017049645169647666 -0.049443808321229146 0.0
0.017830404606551928 -0.04904454520118585 0.0
0.01863345451902307 -0.04848454560210001 0.0
0.019432611183522637 -0.04773214044966811 0.0
0.020230949038657353 -0.04681460183828329 0.0
0.020979934290695397 -0.045741169139707785 0.0
0.021738427867157847 -0.04450303381321738 0.0
0.022471448256755844 -0.04311372205729588 0.0
0.02319358612448183 -0.041564698862087496 0.0
0.023866673669255867 -0.03983361414749612 0.0
0.024532057469329484 -0.03801544816233629 0.0
0.02515028730784956 -0.03602660145744305 0.0
0.025730834866911207 -0.033907713081930003 0.0
0.026291307860486467 -0.031664395293659595 0.0
0.026798893267088352 -0.029302746188432063 0.0
0.027243143324440933 -0.026840788993057446 0.0
0.027650251155389344 -0.024273703592102847 0.0
0.027979752028529162 -0.02163080207561385 0.0
0.02824225347332232 -0.01892191470029197 0.0
0.02842398424590546 -0.016187194809794966 0.0
0.02853223813981354 -0.013439762972463203 0.0
0.028585366452397676 -0.010721973441205145 0.0
0.028597696171749537 -0.008039793885708175 0.0
0.02595971701687188 -0.005400635568569682 0.0
0.02336728342592856 -0.005387286412775091 0.0
0.020824654525041352 -0.005325242866070379 0.0
0.018310260317946896 -0.00518261458177596 0.0
0.01580354837629786 -0.004919341079692956 0.0
0.0132484917020653 -0.004546732928425087 0.0
0.010611008520997361 -0.003951658808665909 0.0
0.0077610381884191965 -0.003129569804510821 0.0
0.004381165354768429 -0.0017662384204941138 0.0
0.015224959663773486 -0.02576911175286417 0.0
0.015227713381989095 -0.039119770367018664 0.0
0.015570590583885153 -0.047567347513734454 0.0
0.015611968883010066 -0.020212131716122843 0.0
0.015333829381148092 -0.034899212176810274 0.0
0.01543069235037872 -0.045122495398497164 0.0
0.015558177379921226 -0.049838683630917154 0.0
0.018267298271332055 -0.01567132841496784 0.0
0.01588211585275657 -0.04977315645451566 0.0
0.01225240275323262 -0.03302960082014653 0.0
0.013487909121724087 -0.04401106748740957 0.0
0.011969051545534667 -0.02816279516423062 0.0
0.013089438469131237 -0.040652145287926704 0.0
0.01453347261824271 -0.04826272522770777 0.0
0.017768566213229114 -0.04386474664891208 0.0
0.01880685629267539 -0.033207528385252476 0.0
0.01685468525212071 -0.048104167502518995 0.0
0.018421465290242287 -0.04068864089151718 0.0
0.01960141925168495 -0.028140838822028013 0.0
0.014786750138297427 -0.049394245679102416 0.0
0.011337012269842163 -0.018823404219631322 0.0
0.020183292350592217 -0.013590984029427674 0.0
0.01062539150319808 -0.013771066053012808 0.0
0.015561478444076935 -0.04999924210042357 0.0
0.02118682345253284 -0.022375966140496893 0.0
0.01707445459623508 -0.04850719666581495 0.0
0.015350402962531933 -0.04996458242066529 0.0
0.009997806054662188 -0.02742655439075383 0.0
0.01124707013564047 -0.03801089853933368 0.0
0.01324798191774545 -0.04689839041890517 0.0
0.009253150860664586 -0.022184971148675674 0.0
0.010751356617434954 -0.033691933319705575 0.0
0.01251327294348467 -0.04427835793863802 0.0
0.019424095257955406 -0.04002462415686697 0.0
0.018152613651553955 -0.045726037102284914 0.0
0.020004508861092875 -0.03600594980778121 0.0
0.021453376473809783 -0.022045951900182093 0.0
0.009365495576082482 -0.011729079349181841 0.0
0.016540266089178527 -0.04949990831276988 0.0
0.021713673416657416 -0.028003287280068446 0.0
0.02271587281340867 -0.011352674984875893 0.0
0.0142642519387359 -0.04927559564119103 0.0
0.018445663068614452 -0.04631868823888457 0.0
0.015026828831996577 -0.010930520897648309 0.0
0.01536420279366188 -0.010843246338704598 0.0
0.015543481227026397 -0.05007230538931876 0.0
0.012536391489929511 -0.046755528708455674 0.0
0.01041628178226405 -0.037789833840870604 0.0
0.01111208800040251 -0.041581849343281636 0.0
0.02107912244601324 -0.036402391623603314 0.0
0.02170483642126262 -0.03195432045824382 0.0
0.019567115772911467 -0.043220659236530415 0.0
0.01550213298077924 -0.02084416043260693 0.0
0.02320018337473027 -0.01746233867425893 0.0
0.015524377909071057 -0.04899140946533056 0.0
0.015610957257195846 -0.042603815586791216 0.0
0.015629618900764995 -0.0474544194040095 0.0
0.01560707298227932 -0.030756607434245114 0.0
0.01569020573051032 -0.03910456688497348 0.0
0.015443384593319197 -0.025725672638698557 0.0
0.015632561302257878 -0.03530850481949263 0.0
0.015546180275860126 -0.03059848856992351 0.0
0.015568696024651777 -0.04239887249679282 0.0
0.01553987823892983 -0.0454429409517924 0.0
0.015589111996669998 -0.048939693100474066 0.0
0.016170183358119705 -0.049814920810359146 0.0
0.013350751953048991 -0.04831660926061877 0.0
0.007828893075289162 -0.0229965217920336 0.0
0.00739682840834522 -0.017382311431764053 0.0
0.023895133639377918 -0.01747628216331739 0.0
0.014713166767488932 -0.049709839761193864 0.0
0.024193244569129666 -0.009628888612658225 0.0
0.0070072018016714525 -0.00988295662842226 0.0
0.008417338957886229 -0.031110345949041614 0.0
0.011695690509310134 -0.0450882463139046 0.0
0.00815124916512057 -0.026359212750687797 0.0
0.010808255643357283 -0.0417167393761474 0.0
0.020197340529720838 -0.04272407444015821 0.0
0.018357434358798 -0.047413982633341095 0.0
0.021160223326978207 -0.039308826811614204 0.0
0.023199972093827296 -0.026185090891491368 0.0
0.016233766557874528 -0.01576252797644219 0.0
0.01320994461887516 -0.04818703768125914 0.0
0.006833125760822194 -0.016317580862608677 0.0
0.008808071599041518 -0.03507889048316195 0.0
0.008173966140276339 -0.030420964113710217 0.0
0.01453639019488778 -0.04819298734535926 0.0
0.012167686132967112 -0.02350356687839121 0.0
0.011886326236824256 -0.01873274467751963 0.0
0.02279282997645075 -0.032291757967101986 0.0
0.014480441767854185 -0.015726739296202375 0.0
0.01324415052194127 -0.04071909567674112 0.0
0.014072254921698325 -0.04620228113402712 0.0
0.01292393977103998 -0.03677212453070597 0.0
0.017996330362448017 -0.03735253258864118 0.0
0.01829539963344173 -0.03298913063576952 0.0
0.017312163423650093 -0.0439307233305163 0.0
0.01708427373835266 -0.04918698561853834 0.0
0.01875523917448451 -0.00955965741913157 0.0
0.017554024683083005 -0.04864618322603109 0.0
0.01903202947177691 -0.008966506799695852 0.0
0.011545751022678744 -0.009534444582875504 0.0
0.01503703747538788 -0.04936131841756647 0.0
0.019306253879057142 -0.01847426736885234 0.0
0.01616721319758266 -0.04982632871548749 0.0
0.016761796389028263 -0.04663797003673632 0.0
0.018182772398082057 -0.028441635445961858 0.0
0.01544398827197477 -0.04974076211791385 0.0
0.015872367028238105 -0.04989527282121091 0.0
0.023856471118441434 -0.024803288467270136 0.0
0.006913103592968878 -0.007871497631418714 0.0
0.019828995460367274 -0.044835493605134044 0.0
0.014750333094533613 -0.04974174277199977 0.0
0.01838584295738436 -0.047755454030878594 0.0
0.015632289839682546 -0.050021994591748366 0.0
0.011896251645686785 -0.008315700768285542 0.0
0.012638684110374715 -0.02980169331255552 0.0
0.012190211468472014 -0.02446848979313503 0.0
0.013021070754317635 -0.03611464946404222 0.0
0.014056606260007936 -0.04588622956281193 0.0
0.01276305093143479 -0.031567275417420264 0.0
0.013683926926085839 -0.04296324851116011 0.0
0.01721787107124443 -0.040906137989970524 0.0
0.018020904694523745 -0.023032461959498898 0.0
0.017447549311852713 -0.03711107300079666 0.0
0.016621786425383797 -0.04638226107219931 0.0
0.01607521431652742 -0.04940796251756407 0.0
0.015219108850999067 -0.04989789377676068 0.0
0.009441151345020687 -0.039413442851936806 0.0
0.00863634340590922 -0.03530011801413572 0.0
0.011163774992504708 -0.04535531476419335 0.0
0.0247484573024897 -0.020687231200136807 0.0
0.022409394653974412 -0.03855596483167606 0.0
0.020001194966289163 -0.04475926370092187 0.0
0.022837456395877535 -0.0344533541140083 0.0
0.01631174814449283 -0.04833591367950671 0.0
0.014052284845417982 -0.04929094147208584 0.0
0.019562834318761917 -0.01945685768004911 0.0
0.0181064411528163 -0.023237349948600217 0.0
0.012389043733201563 -0.04741973032291263 0.0
0.006349816255447545 -0.01386294213472046 0.0
0.025190515468351684 -0.01338589618821762 0.0
0.006857300443633672 -0.025966163131749237 0.0
0.015592571376189045 -0.04990889313089406 0.0
0.015384013071709222 -0.049885778811528704 0.0
0.016246486383353454 -0.049184739042968065 0.0
0.02093061717576293 -0.04128661638613651 0.0
0.02361916426398081 -0.029178830288964355 0.0
0.015205725195472428 -0.04983698741467661 0.0
0.006698866642980257 -0.02307699075983321 0.0
0.02552822668008919 -0.013804266771755218 0.0
0.025387340670332072 -0.008996746277824083 0.0
0.024576369236109587 -0.02037035169562345 0.0
0.009822827245176469 -0.039911333163971205 0.0
0.01054855233299749 -0.043337201501695316 0.0
0.011628546752200023 -0.014371009385891323 0.0
0.005970589975064833 -0.019365547986742927 0.0
0.020247703305395576 -0.025511899803825126 0.0
0.010319715196141643 -0.04345555691161895 0.0
0.013525032315140155 -0.03880029576146552 0.0
0.014176863298703834 -0.0449257000862488 0.0
0.013295590681530352 -0.03457735325266191 0.0
0.005506346589372135 -0.012866854948874521 0.0
0.0238987223936169 -0.029901358245135935 0.0
0.014457519232947583 -0.04731404129176264 0.0
0.018488451290911537 -0.04227748109459687 0.0
0.017389975257082965 -0.04713181821765515 0.0
0.01904357908115624 -0.03854573753238874 0.0
0.020248011372709405 -0.02516350489353267 0.0
0.017257794229379477 -0.049290661147369165 0.0
0.013037715138612134 -0.026600231498881233 0.0
0.021489156643479577 -0.04112679325744601 0.0
0.02243793023620999 -0.03743435295465559 0.0
0.019337098882582716 -0.04646359751448302 0.0
0.021539711574405623 -0.014538354100906533 0.0
0.01305521150504281 -0.013735126136101948 0.0
0.013501160813609074 -0.04880042691665059 0.0
0.017281471696623193 -0.04742748243783234 0.0
0.00827105126683703 -0.03722708887156141 0.0
0.007458578344454075 -0.03282669643619418 0.0
0.016941099078742822 -0.04876126725623691 0.0
0.012713181950144087 -0.022061764023834265 0.0
0.02100663041184118 -0.031328814569960645 0.0
0.017777272051595083 -0.012611918265722548 0.0
0.01796791704016996 -0.048566028516589484 0.0
0.021988682067048123 -0.007448536496640872 0.0
0.01157216127261686 -0.04620636848599717 0.0
0.006820734725182711 -0.02883718760427378 0.0
0.016406638527967626 -0.049574835065887765 0.0
0.012203787045819581 -0.04734400674657752 0.0
0.01773646525401501 -0.04556584029114742 0.0
0.023390906957020202 -0.03488529094893914 0.0
0.015524038902620583 -0.05003693788688535 0.0
0.016097186371016294 -0.008296652401333262 0.0
0.014474526290346233 -0.04898121648212638 0.0
0.015242657997138635 -0.048253126324705534 0.0
0.01450581041236324 -0.028194097518564998 0.0
0.01482193365534414 -0.040663012526818774 0.0
0.01460943106050476 -0.033038584595513586 0.0
0.014916825002656654 -0.04400749942143594 0.0
0.005923530637750494 -0.01976113789658563 0.0
0.016467829361680186 -0.007853007497387434 0.0
0.019368525383293807 -0.04661261768173214 0.0
0.015604211649166004 -0.050046274331554494 0.0
0.015030761664282345 -0.049838581964881126 0.0
0.0123000071062212 -0.011012251412510582 0.0
0.025221773486364858 -0.023104116465888672 0.0
0.019688649438322957 -0.03081761099932143 0.0
0.019692045610874172 -0.03520709659059107 0.0
0.01833053619598712 -0.04250538570848622 0.0
0.012289641464650133 -0.03883470768049085 0.0
0.012753941365352591 -0.042485851361429114 0.0
0.01392270948956213 -0.047388040086067895 0.0
0.007157619848767685 -0.0330713798055159 0.0
0.006501354046966876 -0.028221852067992683 0.0
0.013000068634781897 -0.04559467549985828 0.0
0.011215580762222198 -0.035834273633155715 0.0
0.011726436685674566 -0.03989616184869648 0.0
0.017947263553094908 -0.030865344333120482 0.0
0.017412293145069743 -0.012939188208338285 0.0
0.009262863486856286 -0.00813300172316524 0.0
0.021433119763390348 -0.006993464164702055 0.0
0.01629748031188248 -0.04397731167904839 0.0
0.016739505424422114 -0.0332211154039755 0.0
0.01601315626977826 -0.048166772431620444 0.0
0.01651415223946255 -0.04060746153324661 0.0
0.01686314347979667 -0.027989670098386914 0.0
0.024134099075306763 -0.0274571353511649 0.0
0.009386001859946987 -0.006351234240664814 0.0
0.019686216351384282 -0.038310890448015 0.0
0.018445929237648 -0.04457468231431325 0.0
0.020221277965016347 -0.03406563237237155 0.0
0.014658123044424012 -0.037284704574268704 0.0
0.015004182029887037 -0.04389125002483433 0.0
0.014569796114967996 -0.03284491128538602 0.0
0.016848035271200202 -0.04950156715985144 0.0
0.015064143487426955 -0.04664052612208905 0.0
0.011030194792268931 -0.0348195788626935 0.0
0.010612302982038932 -0.030125305430659454 0.0
0.018440796977781584 -0.0480590548844551 0.0
0.015919195131733996 -0.049900736824157826 0.0
0.013084265740058979 -0.021057608846963484 0.0
0.014553047920419202 -0.023237417509046447 0.0
0.014303143806598412 -0.017749093108688076 0.0
0.013828835408168368 -0.048087893874631464 0.0
0.014621504550117154 -0.028379062487925932 0.0
0.00830776177786794 -0.03694219840341511 0.0
0.009248728580828945 -0.04083518984746212 0.0
0.015619430383948456 -0.049927451835022604 0.0
0.02348909130349504 -0.03244320716679564 0.0
0.020658295074503383 -0.043499332482378444 0.0
0.012111854231929283 -0.04380170180135666 0.0
0.011484222641930365 -0.040368441292830265 0.0
0.010014640385146703 -0.024016120884218308 0.0
0.02610263384702228 -0.006405600530440875 0.0
0.0054460948721222376 -0.00838650812206638 0.0
0.016468525793236242 -0.01778933769725561 0.0
0.016238842915066873 -0.04892558998522532 0.0
0.015261160245750392 -0.048395718042401524 0.0
0.014953524700278172 -0.048926170907623745 0.0
0.013734912629196924 -0.008092228727881918 0.0
0.013950109192652688 -0.049328496059480864 0.0
0.025665626208875757 -0.017854834435798342 0.0
0.014793689503378112 -0.022966985253211437 0.0
0.020531294632579154 -0.012179598128008536 0.0
0.014269723806915385 -0.04874745050609726 0.0
0.015041883770132426 -0.04095930374121137 0.0
0.015219150211136971 -0.04644586986167079 0.0
0.01494724109080232 -0.03719852197774769 0.0
0.010127407945422887 -0.021432583103606954 0.0
0.01034674391223429 -0.029840280468140048 0.0
0.010001598870773277 -0.02469100248124766 0.0
0.012977663154328693 -0.04586507866732642 0.0
0.01229018012450628 -0.04290110955346803 0.0
0.015778905909278704 -0.049511168640555006 0.0
0.012627512608278133 -0.04819907165287108 0.0
0.021545517732138565 -0.020036460776331734 0.0
0.021713263366798245 -0.02815776769939098 0.0
0.019872346601743553 -0.040663761302837685 0.0
0.015073398622335987 -0.04893681169989161 0.0
0.01750620520416839 -0.04818296987698566 0.0
0.005219769182806584 -0.023489479602222762 0.0
0.009540877413819742 -0.019279044444263493 0.0
0.010010890481085784 -0.016570304410356628 0.0
0.01805489375539355 -0.02534505598387774 0.0
0.0171220793318768 -0.04235770382322039 0.0
0.01747577181325579 -0.038764277926947005 0.0
0.016551143977587734 -0.047252832189697384 0.0
0.019108363779771872 -0.04416256260350875 0.0
0.014171744889134457 -0.04252426256183901 0.0
0.014772309727329937 -0.047397507021710965 0.0
0.013961284441999353 -0.038923240789333256 0.0
0.02553537048837776 -0.011324995085282964 0.0
0.015478329843441791 -0.04949481981004655 0.0
0.018058757585870753 -0.03927372727061079 0.0
0.018293850720734615 -0.03546765191825321 0.0
0.01718632789483382 -0.045439659252649686 0.0
0.016682666544733337 -0.04532692169561041 0.0
0.01142823750456084 -0.04626404696218306 0.0
0.0159244295255365 -0.04992260775630347 0.0
0.017034340777440857 -0.042224575678756024 0.0
0.01771720602722684 -0.030361041703276748 0.0
0.017650285172104326 -0.020447502533150166 0.0
0.020661093713655026 -0.04363750526485533 0.0
0.00970032810852092 -0.011244787354309897 0.0
0.021033823932650117 -0.010647924291554837 0.0
0.02292244800678305 -0.03699011107284763 0.0
0.00862868077659166 -0.018896800061705233 0.0
0.014488057019509821 -0.04946440122188984 0.0
0.021293234848863626 -0.016211536515089175 0.0
0.020719455964069163 -0.01680623822588232 0.0