<VTKFile type="UnstructuredGrid"  version="0.1">
<UnstructuredGrid>
<Piece NumberOfPoints="713" NumberOfCells="1304">
<Points>
<DataArray type="Float64" NumberOfComponents="3" format="ascii">
0.0 0.0 0.0
10.0 0.0 0.0
10.0 2.0 0.0
5.0 2.0 0.0
0.0 2.0 0.0
0.199999999999856 0.0 0.0
0.3999999999996677 0.0 0.0
0.5999999999994683 0.0 0.0
0.7999999999993286 0.0 0.0
0.9999999999991888 0.0 0.0
1.199999999999033 0.0 0.0
1.399999999998576 0.0 0.0
1.599999999997992 0.0 0.0
1.799999999997408 0.0 0.0
1.999999999996825 0.0 0.0
2.199999999996241 0.0 0.0
2.399999999995657 0.0 0.0
2.599999999995073 0.0 0.0
2.79999999999449 0.0 0.0
2.999999999993906 0.0 0.0
3.199999999993322 0.0 0.0
3.399999999992738 0.0 0.0
3.599999999992154 0.0 0.0
3.799999999991571 0.0 0.0
3.999999999991022 0.0 0.0
4.199999999991187 0.0 0.0
4.399999999991491 0.0 0.0
4.599999999991795 0.0 0.0
4.799999999992099 0.0 0.0
4.999999999992403 0.0 0.0
5.199999999992706 0.0 0.0
5.39999999999301 0.0 0.0
5.599999999993313 0.0 0.0
5.799999999993618 0.0 0.0
5.999999999993922 0.0 0.0
6.199999999994227 0.0 0.0
6.39999999999453 0.0 0.0
6.599999999994833 0.0 0.0
6.799999999995138 0.0 0.0
6.999999999995442 0.0 0.0
7.199999999995747 0.0 0.0
7.39999999999605 0.0 0.0
7.599999999996353 0.0 0.0
7.799999999996658 0.0 0.0
7.999999999996962 0.0 0.0
8.199999999997265 0.0 0.0
8.399999999997569 0.0 0.0
8.599999999997873 0.0 0.0
8.799999999998176 0.0 0.0
8.99999999999848 0.0 0.0
9.199999999998786 0.0 0.0
9.399999999999089 0.0 0.0
9.599999999999392 0.0 0.0
9.799999999999697 0.0 0.0
10.0 0.1999999999996293 0.0
10.0 0.3999999999991157 0.0
10.0 0.5999999999985328 0.0
10.0 0.7999999999979498 0.0
10.0 0.9999999999973885 0.0
10.0 1.199999999997894 0.0
10.0 1.39999999999842 0.0
10.0 1.599999999998947 0.0
10.0 1.799999999999474 0.0
9.799999999999999 2.0 0.0
9.6 2.0 0.0
9.399999999999999 2.0 0.0
9.2 2.0 0.0
8.999999999999998 2.0 0.0
8.799999999999999 2.0 0.0
8.599999999999998 2.0 0.0
8.399999999999999 2.0 0.0
8.2 2.0 0.0
7.999999999999998 2.0 0.0
7.799999999999999 2.0 0.0
7.599999999999999 2.0 0.0
7.399999999999999 2.0 0.0
7.199999999999999 2.0 0.0
7.0 2.0 0.0
6.799999999999999 2.0 0.0
6.6 2.0 0.0
6.399999999999999 2.0 0.0
6.199999999999999 2.0 0.0
5.999999999999999 2.0 0.0
5.8 2.0 0.0
5.6 2.0 0.0
5.399999999999999 2.0 0.0
5.199999999999999 2.0 0.0
4.8 2.0 0.0
4.6 2.0 0.0
4.399999999999999 2.0 0.0
4.199999999999998 2.0 0.0
3.999999999999999 2.0 0.0
3.799999999999999 2.0 0.0
3.599999999999999 2.0 0.0
3.399999999999999 2.0 0.0
3.199999999999998 2.0 0.0
2.999999999999999 2.0 0.0
2.799999999999999 2.0 0.0
2.599999999999999 2.0 0.0
2.399999999999999 2.0 0.0
2.199999999999999 2.0 0.0
2.0 2.0 0.0
1.799999999999999 2.0 0.0
1.599999999999999 2.0 0.0
1.399999999999999 2.0 0.0
1.199999999999999 2.0 0.0
0.9999999999999991 2.0 0.0
0.7999999999999998 2.0 0.0
0.5999999999999996 2.0 0.0
0.3999999999999995 2.0 0.0
0.1999999999999993 2.0 0.0
0.0 1.799999999999167 0.0
0.0 1.6 0.0
0.0 1.400000000001387 0.0
0.0 1.200000000002774 0.0
0.0 1.000000000004117 0.0
0.0 0.8000000000033287 0.0
0.0 0.6000000000024965 0.0
0.0 0.4000000000016644 0.0
0.0 0.200000000000832 0.0
1.499207686858938 0.9671416246672391 0.0
2.690335006295381 0.9619521672166851 0.0
3.892537609238439 1.007271393615351 0.0
8.916602958236062 0.9848120741100651 0.0
7.714518201951718 1.024234589865042 0.0
6.514518201951581 1.024234589865268 0.0
5.299999999999998 1.000000000000349 0.0
0.7620577975594133 1.201991596673393 0.0
4.61755859746166 1.240410629378135 0.0
2.099999999996533 0.6749999999988996 0.0
3.289480163184942 0.6802242156869155 0.0
8.299999999999976 1.325000000000064 0.0
7.110519836808121 1.319775784312006 0.0
5.893184537067197 1.292851873188582 0.0
3.268568008578649 1.341967835735878 0.0
2.118368267083699 1.321829331075689 0.0
5.930896443153832 0.6493414313150682 0.0
7.106926174231782 0.6329785805444448 0.0
8.306926174233002 0.6329785805444098 0.0
4.427960725065653 0.6389803625370323 0.0
0.9828791719046732 0.6520555711814596 0.0
9.383333333333349 0.6166666666667164 0.0
9.383333333333326 1.383333333333367 0.0
4.974443803660211 0.5526668589022862 0.0
1.248084267804327 1.464555585366204 0.0
4.139486343919472 1.468449088519687 0.0
5.077806736162063 1.478342020848787 0.0
1.629462398503482 0.5098631373669138 0.0
2.579462070540726 0.5133714280880515 0.0
3.770778974032556 0.5099482598296803 0.0
8.764748922637567 1.526880805960684 0.0
7.820537929455645 1.486628571911716 0.0
6.632254923791462 1.492045881343967 0.0
2.796478414430566 1.477149214423874 0.0
6.403521585563812 0.5228507855762514 0.0
7.603521585564883 0.5228507855756581 0.0
8.783559188644787 0.5066440811355862 0.0
0.5060338924245764 0.5082251307884346 0.0
5.451633334958382 0.4799315318847731 0.0
1.683269995544083 1.547372422998862 0.0
0.448590368789599 1.551409631210402 0.0
5.545526974704655 1.582008455135239 0.0
3.666056976948354 1.56999765613834 0.0
0.4385739326402744 0.9352922270094057 0.0
9.58170539854767 0.9922137522194456 0.0
4.93200119575972 0.9247090920592975 0.0
6.20679636316332 1.642443126922768 0.0
7.418963044745086 1.587405313446662 0.0
2.98103695524982 0.412594686552066 0.0
2.420975602092416 1.592770352831584 0.0
7.97902439790374 0.4072296471687943 0.0
6.779024397902082 0.4072296471687297 0.0
1.130444757308209 0.9859238872709168 0.0
0.8901814758011342 1.60566856081121 0.0
4.263670373274499 0.9915754392410991 0.0
3.096698167273431 1.009056907826855 0.0
6.088506433998166 0.9857489435828969 0.0
1.902225037409936 1.003483800311746 0.0
7.288506433998439 0.9857489435828686 0.0
8.498964973312972 1.005823551167602 0.0
2.307571737417198 1.008136792450924 0.0
8.100397971125554 1.000138280273345 0.0
6.900397971125225 1.000138280273792 0.0
3.499307350770321 0.9996496628144824 0.0
5.703656022566558 0.9885479657552226 0.0
4.719420624357892 1.622286409566126 0.0
4.099803549896894 0.3600308081356619 0.0
1.286100671532495 0.3637431910670685 0.0
9.120549139677793 1.655065205594329 0.0
9.11726214008418 0.3400668903113251 0.0
4.642568097328033 0.3514924793220939 0.0
9.630437629189052 0.3309104953729904 0.0
9.674493769554315 1.668196579944218 0.0
1.936458797611609 0.3337070483410596 0.0
3.461817573918652 0.3447876019040473 0.0
8.440152788772068 1.649667667046397 0.0
6.973083089482548 1.643748677366674 0.0
3.126874515006838 1.659115470008545 0.0
6.070607878384977 0.3410183041038941 0.0
7.255014454789089 0.32792256737713 0.0
8.462493615948901 0.3368393217476116 0.0
9.236261261261264 0.9276047786917867 0.0
5.885444386845415 1.667751020273455 0.0
0.8062340689595878 0.3261579034781319 0.0
2.29463843780282 0.308358158429197 0.0
8.10536156219338 1.691641841570632 0.0
4.041916759198581 0.7211683801597477 0.0
1.324377365289917 0.710525897087282 0.0
9.023167917315867 1.292262965009952 0.0
2.044244009166302 1.693807225416931 0.0
0.7675765545556328 0.8969765944392112 0.0
2.86965991063896 0.7069213925303978 0.0
6.330340089355722 1.293078607468788 0.0
7.530340089355831 1.29307860746885 0.0
2.509347777214458 1.27231292939881 0.0
7.890652222779963 0.7276870706009825 0.0
6.690652222780154 0.7276870706013264 0.0
4.380959112578968 1.65866292149053 0.0
0.3278422400819535 1.233362752678148 0.0
5.754468991464942 0.3469215055361071 0.0
9.69195804401614 0.7000195364707393 0.0
9.691250997975434 1.303243780084337 0.0
5.54324561063747 1.237401556904767 0.0
9.044596057577811 0.6843248705785732 0.0
5.208929198448351 0.3519433027337513 0.0
3.708880196230617 1.249762029554333 0.0
1.713349558540635 1.234899745098077 0.0
4.586522821995393 0.9261740906803194 0.0
5.241145838821565 0.7007005766013242 0.0
1.434457446926135 1.701926055218157 0.0
0.2821921707428039 0.3393165318407161 0.0
3.42846431357046 1.714274134409306 0.0
5.26283485467567 1.710141275531951 0.0
3.966530105129177 1.718376080180638 0.0
4.891301048299285 1.259923533724591 0.0
0.2787500712946937 0.6906723798523376 0.0
1.822166578929051 0.7301892210727335 0.0
8.593276160688786 1.287322908694633 0.0
2.386017956680413 0.7288816957021155 0.0
3.576911792171353 0.7225526638483954 0.0
8.013982043315597 1.271118304297217 0.0
6.82303669320588 1.277631295759485 0.0
2.891837633696712 1.215141906356511 0.0
8.708162366297856 0.7848580936429009 0.0
7.496736072543097 0.7897651325976158 0.0
6.296736072542775 0.7897651325982009 0.0
5.523181420933933 0.7588744249744506 0.0
4.725538117155759 0.6529070682798582 0.0
2.736307197014292 0.273961667653487 0.0
7.663692802980817 1.726038332346062 0.0
6.446842959287713 1.783714797320288 0.0
1.126188383272983 1.743715177525389 0.0
2.64757240694847 1.787239829472812 0.0
6.546646507559373 0.2589894635657943 0.0
7.746646507561152 0.2589894635657218 0.0
4.079302268890254 1.221431431691139 0.0
4.433746883463333 0.2983726043497702 0.0
1.032697650548726 1.318076986199429 0.0
1.309492735411376 1.208980965369829 0.0
3.896105387998365 0.2579746081881307 0.0
9.378751775005455 1.725996478164223 0.0
9.3965279828929 0.2649862374471925 0.0
1.515757555362918 0.2603060454608533 0.0
4.959097093232828 1.726144293543605 0.0
4.912501341257775 0.2529154558175828 0.0
4.342421824442713 1.285376618065631 0.0
7.023506283123107 0.293611963231815 0.0
8.215829626877609 0.2682061590942965 0.0
5.28145265730745 1.291130016052329 0.0
8.693992162747364 1.744100892812201 0.0
0.6256567126095668 1.775064851453201 0.0
0.2724967459749605 1.756941612685287 0.0
8.90781713264278 0.2741674349222226 0.0
7.184202236567151 1.709454269177068 0.0
3.212962614055919 0.2641656831057426 0.0
0.6761590188374282 0.6746441670621973 0.0
1.020489328989316 0.2487299689497893 0.0
1.485017749467193 1.402133856149482 0.0
6.734223224917944 1.790518105434539 0.0
2.657549589911705 0.7636227781082678 0.0
6.542590471647475 1.237213715285722 0.0
7.742745187066703 1.235538225115726 0.0
0.5794341726414672 0.2480285055479751 0.0
1.842901067642841 1.760146518280044 0.0
3.84389577648662 0.7524680119172447 0.0
3.061589173628368 1.407936939342627 0.0
6.144447294584154 0.5911674363009913 0.0
7.344447294585433 0.5911674362995804 0.0
8.544447294586682 0.5911674362982269 0.0
5.491507940982565 0.1734458797927824 0.0
[...]
<PointData Vectors="fields">
<DataArray type="Float64" Name="U" NumberOfComponents="3" format="ascii">
0.0 0.0 0.0
0.028870059060053698 0.0 0.0
0.0023535272763616838 -0.005328377188401847 0.0
0.014331481320159139 -0.046203791289556366 0.0
0.026362487007440902 -0.005097696056260542 0.0
0.00030646160811451106 -0.005559525903053927 0.0
0.0009168673342958648 -0.009116626618282555 0.0
0.0014665888408166043 -0.012255151921368152 0.0
0.001926680855229637 -0.01500812525033912 0.0
0.0023287586126268574 -0.017632680292769997 0.0
0.002715424972229658 -0.020152407504085014 0.0
0.003103050802930855 -0.022576648034134398 0.0
0.003527501103202582 -0.024918811831897397 0.0
0.00396502897926493 -0.027180205221488646 0.0
0.004436692345302164 -0.029336785416414657 0.0
0.00493138124058894 -0.03138803375348853 0.0
0.005470267596523403 -0.03333556715197042 0.0
0.006018683663637608 -0.03516319766059465 0.0
0.006623057153638024 -0.03687090785701038 0.0
0.007225991076903013 -0.03845130705123552 0.0
0.007878505114300235 -0.03989750834623138 0.0
0.008534020066088069 -0.041197082498648105 0.0
0.009224056118134726 -0.04235945878861685 0.0
0.009919792805360504 -0.04334630737194674 0.0
0.01062251545265054 -0.04422984570561407 0.0
0.011353677465583297 -0.044939683802342374 0.0
0.012076209706543523 -0.045489355096275774 0.0
0.012819649927940324 -0.045889227190046844 0.0
0.013550424526268656 -0.046123053814467095 0.0
0.014310838664013724 -0.04620666650411976 0.0
0.015050130979770097 -0.04613247534653594 0.0
0.015789170747050697 -0.04589670487511106 0.0
0.016525180017706777 -0.045506685839190465 0.0
0.01725256677187781 -0.0449568417419612 0.0
0.01796132319979614 -0.04425881241715221 0.0
0.01868664287937756 -0.043417914323166856 0.0
0.019374875053901428 -0.04238602244117849 0.0
0.020066385443735926 -0.04125537409718673 0.0
0.02072750239712631 -0.03997618367585978 0.0
0.021387168813317415 -0.038535269049954676 0.0
0.022008009716953984 -0.03696353008451697 0.0
0.02260432036965153 -0.03526854285083122 0.0
0.023155466158679115 -0.033422185169738626 0.0
0.023692948150118034 -0.03150211887183763 0.0
0.024187793131353347 -0.029465898743744216 0.0
0.024663413966407532 -0.027316838960174946 0.0
0.02510068811845543 -0.025063957140583785 0.0
0.02551938672127909 -0.02273120031126805 0.0
0.02590216876691928 -0.02031009341883454 0.0
0.026293349755528213 -0.017796696848412532 0.0
0.026677179271812814 -0.015193471099503447 0.0
0.02710420912644382 -0.012444435898418704 0.0
0.02757843222940767 -0.00946214293031035 0.0
0.028312136105058432 -0.005911050553789607 0.0
0.024383175665160503 -0.0021048472989112503 0.0
0.021482686041154254 -0.0032592346265015917 0.0
0.018849941812814422 -0.003991712146761655 0.0
0.016432210256719874 -0.004544201326778273 0.0
0.014086339455654653 -0.0048912690268993865 0.0
0.011782923271207606 -0.005117364283074747 0.0
0.009481585468740296 -0.005254042408710222 0.0
0.0071460867761978615 -0.005315378672297653 0.0
0.0047690630099157996 -0.005328155350654946 0.0
0.0023518012197417883 -0.007752862319019996 0.0
0.00235874156314427 -0.010208647428695488 0.0
0.002404390285287372 -0.012702080029290632 0.0
0.002509128040382485 -0.015220934549932756 0.0
0.002682066428869835 -0.017729749138507053 0.0
0.002916598330222236 -0.020195855932472015 0.0
0.003215528947734096 -0.022629267907863557 0.0
0.003565723017982466 -0.024977148675726063 0.0
0.003968139278009224 -0.027238547704209873 0.0
0.00442743374662829 -0.02941010219266018 0.0
0.004909137587811507 -0.031469266783344156 0.0
0.005452949758838572 -0.03342005256609766 0.0
0.006005804431795016 -0.0352502747156823 0.0
0.0066136927139246494 -0.03695350328053788 0.0
0.007241793595117342 -0.03852998851261025 0.0
0.007895915270801896 -0.039967843033497395 0.0
0.008554788518189884 -0.04123183086957598 0.0
0.009247961655346366 -0.0424125040485468 0.0
0.00995324016841393 -0.04340684632013584 0.0
0.010650856054244172 -0.04425654435318279 0.0
0.011376224051757491 -0.04496239711072131 0.0
0.012121937690396822 -0.045506094376930456 0.0
0.012840345050919253 -0.04589389510258416 0.0
0.013591248415733791 -0.04612887594879762 0.0
0.015089297480975167 -0.046108906052364534 0.0
0.015814850042899203 -0.04587247821580334 0.0
0.01653616684508828 -0.0454815441234237 0.0
0.01727738946684235 -0.044942961915171796 0.0
0.018015945114977186 -0.044227181558234345 0.0
0.018755197458951534 -0.04336025083699496 0.0
0.019449793304898436 -0.042350536575146994 0.0
0.020152887662620477 -0.041189822510476204 0.0
0.0208309709066958 -0.03989165757495801 0.0
0.021494719976925314 -0.03844797353698491 0.0
0.02210858820976023 -0.0368377834099003 0.0
0.022712075581748033 -0.035151144542265575 0.0
0.02326759283983764 -0.033309338380683555 0.0
0.02378718276964349 -0.03135047145930842 0.0
0.02428809950610429 -0.02927969566186469 0.0
0.024741743305063027 -0.027102880610652507 0.0
0.025139423403879684 -0.024835738454142442 0.0
0.0255054255605737 -0.02247286169683383 0.0
0.02580270247192512 -0.020041343281291726 0.0
0.02604097420596796 -0.017548856702660542 0.0
0.026206693176021582 -0.015032289452861943 0.0
0.026305905453034056 -0.012502798203701695 0.0
0.026354651650394877 -0.01000007250299793 0.0
0.026366251082596857 -0.007529730284924463 0.0
0.023936544132764085 -0.005098942352336927 0.0
0.021549045520516445 -0.0050865560393153235 0.0
0.019208002052800547 -0.005028757323690278 0.0
0.016893049443174265 -0.004895377236442157 0.0
0.014586636095961922 -0.004648754051150236 0.0
0.012235309514002653 -0.004298351270716705 0.0
0.00980888054053491 -0.0037383775210349467 0.0
0.007184395240400552 -0.0029646147013237287 0.0
0.004059907745421362 -0.0016740457223680886 0.0
0.014065201733537378 -0.023869178110844845 0.0
0.01405969889910695 -0.03621370140425494 0.0
0.014357499355473601 -0.0441145101451224 0.0
0.014351737497772353 -0.018904092011371984 0.0
0.014088895024354554 -0.03257493286342761 0.0
0.014184831915197038 -0.0420901857747497 0.0
0.01431518481695838 -0.046370359476920975 0.0
0.01686558394792629 -0.01456698727384984 0.0
0.014654739480372707 -0.04622764568268775 0.0
0.011308363687153374 -0.030568253472861698 0.0
0.012421573822930531 -0.0407705659704681 0.0
0.010958771075611036 -0.026301063880989822 0.0
0.012002659985198765 -0.03793252986377688 0.0
0.013385254445896768 -0.0449624570534149 0.0
0.016432173009603476 -0.04063224250727604 0.0
0.017378368389003227 -0.030729117123874918 0.0
0.01547665145009338 -0.044818110861776894 0.0
0.016959217935438226 -0.03796546877261896 0.0
0.018061055548202778 -0.026280813931887463 0.0
0.013575989218564864 -0.04585348389535643 0.0
0.01049214606870559 -0.017469831096591722 0.0
0.0186022933722081 -0.01273663460694371 0.0
0.009717249825264139 -0.0128994619656532 0.0
0.014268502125885268 -0.046472862226496714 0.0
0.01955347058123324 -0.02074055312792594 0.0
0.015786018545415358 -0.044996699997760424 0.0
0.014181186508789183 -0.0464482561682028 0.0
0.009236746362380562 -0.02539123367149141 0.0
0.010362646223149844 -0.03517895441003817 0.0
0.01216752100795214 -0.043473747355673525 0.0
0.008436680697692085 -0.0207339736075632 0.0
0.009819421925881632 -0.031442672555805566 0.0
0.011492314022115728 -0.04129472862009041 0.0
0.017973429991693837 -0.03704458486885736 0.0
0.016682205432241953 -0.04263373758785505 0.0
0.018436863253019263 -0.03359876592261106 0.0
0.019782347682454727 -0.020607683270924833 0.0
0.008684851746228463 -0.010928959739553327 0.0
0.015164023096574109 -0.04605995624816944 0.0
0.020049252165870453 -0.025922033711921602 0.0
0.02095276304767987 -0.010583749357756139 0.0
0.013173955028400804 -0.045855353170282644 0.0
0.017069533023579567 -0.04292409720000594 0.0
0.013886951674733998 -0.010193560596829108 0.0
0.014125736885063814 -0.010172626695084827 0.0
0.01429867491636386 -0.04654464241915173 0.0
0.01154819227608609 -0.043567788725109885 0.0
0.009508827781386432 -0.0352549460152478 0.0
0.01022106859411385 -0.038495004856086194 0.0
0.019497380591126802 -0.033677310163429106 0.0
0.020017774081420733 -0.029822732077387372 0.0
0.018006648404285182 -0.040308867547238225 0.0
0.0143231329267224 -0.019333063422899126 0.0
0.021401119950731316 -0.016213000539266543 0.0
0.014303597502154809 -0.04546835808965388 0.0
0.014412073736579227 -0.03945910763019487 0.0
0.014370697721463115 -0.04423308032691959 0.0
0.014415508208609361 -0.028469001075081157 0.0
0.014420953050826456 -0.036494773214440494 0.0
0.01419359962070193 -0.024036444873261016 0.0
0.014438071222864892 -0.03267747335446815 0.0
0.014287760568252546 -0.02857073244611579 0.0
0.01430913283246169 -0.039563894906274946 0.0
0.014338052543914211 -0.04211560225464924 0.0
0.01433725962354237 -0.045578811785274044 0.0
0.014960470534330915 -0.046260764461289 0.0
0.012231271545722032 -0.0448093611321814 0.0
0.007248411397755823 -0.021305941157088892 0.0
0.006712834580490254 -0.016260166877198313 0.0
0.022053939691908855 -0.016352659524575694 0.0
0.013466566434547042 -0.04615655097043695 0.0
0.022331808294200138 -0.009042961772498524 0.0
0.006353112825588313 -0.009273755180550174 0.0
0.0077640167535731755 -0.028785940068534285 0.0
0.010735194755271743 -0.0417662132884908 0.0
0.007408243021115882 -0.02461486672142977 0.0
0.009891575197438711 -0.03890821455247871 0.0
0.018704935748200136 -0.0395522185837059 0.0
0.01684710882168185 -0.04417156249551803 0.0
0.019504562058974606 -0.03666616713442544 0.0
0.02140625453517893 -0.02445331510337808 0.0
0.014930663689934249 -0.014759600813874932 0.0
0.012191728807059094 -0.04487125218915019 0.0
0.006349490105827968 -0.015157324389049298 0.0
0.008112417507086002 -0.03245429465958507 0.0
0.007424498114460782 -0.02839147258398879 0.0
0.013367724252047405 -0.04470373987282637 0.0
0.011249197229804893 -0.02178006759246192 0.0
0.01088751746084784 -0.01752369372198461 0.0
0.02106177545752235 -0.029872408875628004 0.0
0.013386101284945027 -0.014618618990949517 0.0
0.012209096845442878 -0.03770011939915402 0.0
0.012943842479788338 -0.04308048501944414 0.0
0.011842362198377164 -0.03431699589934175 0.0
0.01663572443055789 -0.034567980534027834 0.0
0.016847094933544277 -0.030794146989191452 0.0
0.01592057707005422 -0.04098276520246357 0.0
0.015811430512598812 -0.04564004440003273 0.0
0.01731025340817506 -0.008930129114675183 0.0
0.016093471346764365 -0.04528956165685542 0.0
0.017537046282377004 -0.008422202941683322 0.0
0.010576496754474264 -0.008950550567901255 0.0
0.01385481784739443 -0.04595030921380387 0.0
0.017786387591140016 -0.01728575842676111 0.0
0.014803313177975619 -0.04632876347642571 0.0
0.015484980811843994 -0.0432359558240337 0.0
0.016793436697823277 -0.02633151269704858 0.0
0.014213975888391846 -0.046197167226347334 0.0
0.01457129915762408 -0.04641286984966578 0.0
0.022014835084869976 -0.022970520295850717 0.0
0.006428405907610091 -0.0073586474685100305 0.0
0.01836523379001784 -0.0415234971901067 0.0
0.013645571373410898 -0.046248267935215276 0.0
0.017022225256061202 -0.04427031526275041 0.0
0.014421313858527305 -0.04648857198231479 0.0
0.011008634283010875 -0.007774987381810736 0.0
0.011672207336668697 -0.02758645648525124 0.0
0.011167297839744472 -0.02286381961627557 0.0
0.012014025456739984 -0.03342429926164104 0.0
0.012941095283148928 -0.042528260923302204 0.0
0.011694953098723862 -0.029469942936814222 0.0
0.01256428805346421 -0.04008424848630085 0.0
0.015915489447773545 -0.03787292354622253 0.0
0.016591269506635767 -0.021529344690642747 0.0
0.016057854106984924 -0.034634712093399495 0.0
0.015276399622716154 -0.04324813139171321 0.0
0.014764280899370458 -0.045992615857426956 0.0
0.013969001771471241 -0.04635387613161164 0.0
0.008681074360750506 -0.03647187228837382 0.0
0.007850870538851203 -0.0329298717351845 0.0
0.010266099502691039 -0.04226812550824318 0.0
0.022828509129925408 -0.019180180431316033 0.0
0.02074544207249049 -0.03566544505938219 0.0
0.018391207397074796 -0.04172345280444538 0.0
0.021070715380224963 -0.032141950237447675 0.0
0.015058860343303676 -0.04484067535291032 0.0
0.012857052269112431 -0.04574206910074169 0.0
0.018057504548634137 -0.018054033004943924 0.0
0.016719386770529178 -0.02153654739055632 0.0
0.011343974486819206 -0.0439539427565665 0.0
0.005739963264735175 -0.012981085926821418 0.0
0.023260489427083683 -0.012544237476997714 0.0
0.006340527118564154 -0.0240378559018796 0.0
0.014433784295513846 -0.04636770595470072 0.0
0.014069652073660122 -0.046343261954392326 0.0
0.015000482198850399 -0.04565127815609611 0.0
0.019281807791896217 -0.038504525363312836 0.0
0.02179648163707764 -0.027235064013927036 0.0
0.014022393742324073 -0.046361288845115506 0.0
0.006060691710279302 -0.021558420690354213 0.0
0.023541072432725723 -0.012841003307531126 0.0
0.023410070436781828 -0.008411643373276503 0.0
0.022686736315966696 -0.019043028144301283 0.0
0.008964883426855988 -0.037223725524802014 0.0
0.009682700563112892 -0.040124604484945245 0.0
0.010765153646768092 -0.013368045150056448 0.0
0.0055473629902104155 -0.0179604321050425 0.0
0.018693065254365693 -0.023629515223654113 0.0
0.009458730162778727 -0.04051068204117508 0.0
0.012476195913667517 -0.03591652311992923 0.0
0.01303018953739867 -0.04190487985017156 0.0
0.01218919424490696 -0.032273199877583314 0.0
0.005131729504695788 -0.011975964791860104 0.0
0.02207111724532977 -0.02766479995059313 0.0
0.013305256331579838 -0.043872707346145914 0.0
0.01710509050984277 -0.039146606086441896 0.0
0.015971653185044437 -0.043928347919227985 0.0
0.017541111182595794 -0.03596696783207349 0.0
0.01866178853166151 -0.02350979311868681 0.0
0.015795998880814687 -0.04584864666962182 0.0
0.012046249230944862 -0.024633951247433342 0.0
0.019904436953555774 -0.03805650626446018 0.0
0.020695817644235958 -0.03491506096691858 0.0
0.017756484415297803 -0.04329204910548909 0.0
0.01987289803276624 -0.013520674141329547 0.0
0.011976949217555925 -0.012867878746912916 0.0
0.012475272812992457 -0.04541909484828667 0.0
0.015975441749841886 -0.043975852392280294 0.0
0.007606477872210625 -0.034439421932811576 0.0
0.006756250500701225 -0.03062476402520916 0.0
0.015543747340008096 -0.04540636401416753 0.0
0.011655125842186382 -0.020624390586416165 0.0
0.019407294285866666 -0.02898936844025404 0.0
0.016414149813171918 -0.01174588973385863 0.0
0.01664061582850372 -0.045036805331526056 0.0
0.0202812046279604 -0.006985054302294096 0.0
0.010601351752178486 -0.04280925682207907 0.0
0.006295721885703702 -0.026683392121540993 0.0
0.015168041466056534 -0.04602425713411486 0.0
0.011258304122734385 -0.04409342733802401 0.0
0.01640225291008897 -0.04222457263993709 0.0
0.02163047885356829 -0.03226443797178304 0.0
0.014296807426801962 -0.04652803816002169 0.0
0.01486604737957743 -0.007762597656974623 0.0
0.013346661920620591 -0.04560543130298225 0.0
0.014023787833202071 -0.044958828251449284 0.0
0.013320106175794086 -0.026332894121126098 0.0
0.01361365349461727 -0.03794683319270653 0.0
0.013491080303581378 -0.03057772981425998 0.0
0.013758583948586648 -0.040770621341220004 0.0
0.005341668929141966 -0.018472108750909384 0.0
0.015157431655695941 -0.007383666100361317 0.0
0.017939920258697634 -0.0431872519220579 0.0
0.014334766508733918 -0.04652948207253488 0.0
0.01388255054614202 -0.046351712451408136 0.0
0.011382896706289296 -0.010267528134337808 0.0
0.023286289910458696 -0.021582909270289254 0.0
0.018142728100741533 -0.028770726752100146 0.0
0.018204624298205723 -0.032575891393827536 0.0
0.016868038645537545 -0.03965474692411408 0.0
0.011253886072242916 -0.036236719532625555 0.0
0.01174508075023313 -0.03934435830693782 0.0
0.012820418714237853 -0.04416281286759339 0.0
0.006591904541210997 -0.030591793241829007 0.0
0.005871729618305856 -0.0263412040662679 0.0
0.011955427283134933 -0.042512373255471636 0.0
0.01025086019190613 -0.03343834695339182 0.0
0.010800585458879929 -0.036930726214541916 0.0
0.016579049159340147 -0.02856745251570212 0.0
0.016027231994707087 -0.01212839277534988 0.0
0.008453464130587252 -0.007643595468139907 0.0
0.019771768636049077 -0.006580066322809414 0.0
0.015052741531451638 -0.040742043671731225 0.0
0.015463832765699053 -0.03074499538481413 0.0
0.014717532429265247 -0.04488070990787694 0.0
0.015187494832032274 -0.03789489517993809 0.0
0.015514095889111325 -0.026142850515043507 0.0
0.022278344426239095 -0.025412948477278974 0.0
0.008697993497593278 -0.0059533742078293535 0.0
0.018211477556259237 -0.03545167000898764 0.0
0.016961614839728665 -0.041571113711672665 0.0
0.018638861130886586 -0.031792172298188474 0.0
0.013531984092633207 -0.03450991964870813 0.0
0.013788734787287175 -0.04094980367344386 0.0
0.013377410164597368 -0.030661403445952005 0.0
0.015605782776142852 -0.04594029176344472 0.0
0.013884453799839661 -0.043240184108367115 0.0
0.010171677092868396 -0.03222176034736256 0.0
0.009693748956209265 -0.028124065531105243 0.0
0.01690703185108464 -0.044746995310433045 0.0
0.014703601830558534 -0.04635333998910188 0.0
0.012097723435816053 -0.01952850062919346 0.0
0.01344782228665551 -0.021536659976838235 0.0
0.013135379297310793 -0.016609491496591886 0.0
0.012694545053890427 -0.04459907040401848 0.0
0.013506360706544195 -0.026275128615627467 0.0
0.007546567282157263 -0.03445425757082191 0.0
0.008493653978478581 -0.037789741139358096 0.0
0.014390594698726989 -0.0463843612069298 0.0
0.021676367363840435 -0.03027003642694455 0.0
0.01901132770659471 -0.04055466495403949 0.0
0.011137605634435204 -0.04056857171259664 0.0
0.010510141299734087 -0.037660735824299255 0.0
0.009262161979843241 -0.022249044360185655 0.0
0.024115053295242418 -0.0060273533146710965 0.0
0.004900309774875475 -0.007879200574302277 0.0
0.015212784041248529 -0.016519462549117916 0.0
0.014915775642333772 -0.0455635426427295 0.0
0.014057158817217587 -0.044899274674807435 0.0
0.013753863118698594 -0.045404424053177066 0.0
0.012615278284928122 -0.007606462178051266 0.0
0.0129062320613708 -0.04588195993071858 0.0
0.023669549537342738 -0.01657131373073242 0.0
0.013590011367909478 -0.02146860255976635 0.0
0.018944638113115437 -0.011346794635542558 0.0
0.013098714041869686 -0.04522863495413107 0.0
0.013883819616108253 -0.037925623370294925 0.0
0.013993817210871949 -0.04330922243989619 0.0
0.013728322357869721 -0.034717604288788916 0.0
0.009372850194375467 -0.01987054079729128 0.0
0.00955256086140751 -0.027618683173089055 0.0
0.009131023977202704 -0.023067345152454875 0.0
0.011927437470069168 -0.042502564849234134 0.0
0.011273626900008691 -0.04001843571852083 0.0
0.014548347636885603 -0.045969741532311426 0.0
0.0115433740323644 -0.044687163430409835 0.0
0.01988117383300809 -0.018585985416502554 0.0
0.020024531792089757 -0.02629166850046228 0.0
0.018304380740142293 -0.03793383206166989 0.0
0.013878675541306215 -0.0455739808837122 0.0
0.016062497746239572 -0.04487886330985485 0.0
0.0048394352888180125 -0.021752991756047654 0.0
0.008705969863266532 -0.018029536710581353 0.0
0.009144350697473946 -0.01550726686114322 0.0
0.01662276139413983 -0.023681471649640674 0.0
0.015826460109162385 -0.03922671154262896 0.0
0.01608332951907436 -0.03617559043560969 0.0
0.015208058927009403 -0.044046369195512886 0.0
0.01768874746513721 -0.040902336723372054 0.0
0.013067489877364648 -0.03938400719155332 0.0
0.013592074167016252 -0.04417870849556968 0.0
0.01281037158530187 -0.036324131354549 0.0
0.02354709315608388 -0.010556917100209815 0.0
0.014243208277993908 -0.04607306314760737 0.0
0.016697959707048612 -0.036351713512023515 0.0
0.016845929719135462 -0.03310223761975559 0.0
0.015797614177664378 -0.04237824239308046 0.0
0.015412303224718342 -0.04200538963764924 0.0
0.010525849838184295 -0.0431015308281071 0.0
0.01459816712717128 -0.04642227263873244 0.0
0.015668527071790343 -0.039399563372880746 0.0
0.016308777190198933 -0.02834889456394041 0.0
0.01624685991624733 -0.019123462007434908 0.0
0.019141277776602725 -0.040398680609285115 0.0
0.008858124755882235 -0.010543931520051328 0.0
0.019394654934727563 -0.009992760606412741 0.0
0.0212109146163454 -0.03421263553105881 0.0
0.007997588046363321 -0.01753400145789747 0.0
0.013274570314671209 -0.04591698489231714 0.0
0.019633466826941906 -0.015178125133004627 0.0
0.019119740908875024 -0.015611472781482338 0.0