<VTKFile type="UnstructuredGrid"  version="0.1">
<UnstructuredGrid>
<Piece NumberOfPoints="713" NumberOfCells="1304">
<Points>
<DataArray type="Float64" NumberOfComponents="3" format="ascii">
0.0 0.0 0.0
10.0 0.0 0.0
10.0 2.0 0.0
5.0 2.0 0.0
0.0 2.0 0.0
0.199999999999856 0.0 0.0
0.3999999999996677 0.0 0.0
0.5999999999994683 0.0 0.0
0.7999999999993286 0.0 0.0
0.9999999999991888 0.0 0.0
1.199999999999033 0.0 0.0
1.399999999998576 0.0 0.0
1.599999999997992 0.0 0.0
1.799999999997408 0.0 0.0
1.999999999996825 0.0 0.0
2.199999999996241 0.0 0.0
2.399999999995657 0.0 0.0
2.599999999995073 0.0 0.0
2.79999999999449 0.0 0.0
2.999999999993906 0.0 0.0
3.199999999993322 0.0 0.0
3.399999999992738 0.0 0.0
3.599999999992154 0.0 0.0
3.799999999991571 0.0 0.0
3.999999999991022 0.0 0.0
4.199999999991187 0.0 0.0
4.399999999991491 0.0 0.0
4.599999999991795 0.0 0.0
4.799999999992099 0.0 0.0
4.999999999992403 0.0 0.0
5.199999999992706 0.0 0.0
5.39999999999301 0.0 0.0
5.599999999993313 0.0 0.0
5.799999999993618 0.0 0.0
5.999999999993922 0.0 0.0
6.199999999994227 0.0 0.0
6.39999999999453 0.0 0.0
6.599999999994833 0.0 0.0
6.799999999995138 0.0 0.0
6.999999999995442 0.0 0.0
7.199999999995747 0.0 0.0
7.39999999999605 0.0 0.0
7.599999999996353 0.0 0.0
7.799999999996658 0.0 0.0
7.999999999996962 0.0 0.0
8.199999999997265 0.0 0.0
8.399999999997569 0.0 0.0
8.599999999997873 0.0 0.0
8.799999999998176 0.0 0.0
8.99999999999848 0.0 0.0
9.199999999998786 0.0 0.0
9.399999999999089 0.0 0.0
9.599999999999392 0.0 0.0
9.799999999999697 0.0 0.0
10.0 0.1999999999996293 0.0
10.0 0.3999999999991157 0.0
10.0 0.5999999999985328 0.0
10.0 0.7999999999979498 0.0
10.0 0.9999999999973885 0.0
10.0 1.199999999997894 0.0
10.0 1.39999999999842 0.0
10.0 1.599999999998947 0.0
10.0 1.799999999999474 0.0
9.799999999999999 2.0 0.0
9.6 2.0 0.0
9.399999999999999 2.0 0.0
9.2 2.0 0.0
8.999999999999998 2.0 0.0
8.799999999999999 2.0 0.0
8.599999999999998 2.0 0.0
8.399999999999999 2.0 0.0
8.2 2.0 0.0
7.999999999999998 2.0 0.0
7.799999999999999 2.0 0.0
7.599999999999999 2.0 0.0
7.399999999999999 2.0 0.0
7.199999999999999 2.0 0.0
7.0 2.0 0.0
6.799999999999999 2.0 0.0
6.6 2.0 0.0
6.399999999999999 2.0 0.0
6.199999999999999 2.0 0.0
5.999999999999999 2.0 0.0
5.8 2.0 0.0
5.6 2.0 0.0
5.399999999999999 2.0 0.0
5.199999999999999 2.0 0.0
4.8 2.0 0.0
4.6 2.0 0.0
4.399999999999999 2.0 0.0
4.199999999999998 2.0 0.0
3.999999999999999 2.0 0.0
3.799999999999999 2.0 0.0
3.599999999999999 2.0 0.0
3.399999999999999 2.0 0.0
3.199999999999998 2.0 0.0
2.999999999999999 2.0 0.0
2.799999999999999 2.0 0.0
2.599999999999999 2.0 0.0
2.399999999999999 2.0 0.0
2.199999999999999 2.0 0.0
2.0 2.0 0.0
1.799999999999999 2.0 0.0
1.599999999999999 2.0 0.0
1.399999999999999 2.0 0.0
1.199999999999999 2.0 0.0
0.9999999999999991 2.0 0.0
0.7999999999999998 2.0 0.0
0.5999999999999996 2.0 0.0
0.3999999999999995 2.0 0.0
0.1999999999999993 2.0 0.0
0.0 1.799999999999167 0.0
0.0 1.6 0.0
0.0 1.400000000001387 0.0
0.0 1.200000000002774 0.0
0.0 1.000000000004117 0.0
0.0 0.8000000000033287 0.0
0.0 0.6000000000024965 0.0
0.0 0.4000000000016644 0.0
0.0 0.200000000000832 0.0
1.499207686858938 0.9671416246672391 0.0
2.690335006295381 0.9619521672166851 0.0
3.892537609238439 1.007271393615351 0.0
8.916602958236062 0.9848120741100651 0.0
7.714518201951718 1.024234589865042 0.0
6.514518201951581 1.024234589865268 0.0
5.299999999999998 1.000000000000349 0.0
0.7620577975594133 1.201991596673393 0.0
4.61755859746166 1.240410629378135 0.0
2.099999999996533 0.6749999999988996 0.0
3.289480163184942 0.6802242156869155 0.0
8.299999999999976 1.325000000000064 0.0
7.110519836808121 1.319775784312006 0.0
5.893184537067197 1.292851873188582 0.0
3.268568008578649 1.341967835735878 0.0
2.118368267083699 1.321829331075689 0.0
5.930896443153832 0.6493414313150682 0.0
7.106926174231782 0.6329785805444448 0.0
8.306926174233002 0.6329785805444098 0.0
4.427960725065653 0.6389803625370323 0.0
0.9828791719046732 0.6520555711814596 0.0
9.383333333333349 0.6166666666667164 0.0
9.383333333333326 1.383333333333367 0.0
4.974443803660211 0.5526668589022862 0.0
1.248084267804327 1.464555585366204 0.0
4.139486343919472 1.468449088519687 0.0
5.077806736162063 1.478342020848787 0.0
1.629462398503482 0.5098631373669138 0.0
2.579462070540726 0.5133714280880515 0.0
3.770778974032556 0.5099482598296803 0.0
8.764748922637567 1.526880805960684 0.0
7.820537929455645 1.486628571911716 0.0
6.632254923791462 1.492045881343967 0.0
2.796478414430566 1.477149214423874 0.0
6.403521585563812 0.5228507855762514 0.0
7.603521585564883 0.5228507855756581 0.0
8.783559188644787 0.5066440811355862 0.0
0.5060338924245764 0.5082251307884346 0.0
5.451633334958382 0.4799315318847731 0.0
1.683269995544083 1.547372422998862 0.0
0.448590368789599 1.551409631210402 0.0
5.545526974704655 1.582008455135239 0.0
3.666056976948354 1.56999765613834 0.0
0.4385739326402744 0.9352922270094057 0.0
9.58170539854767 0.9922137522194456 0.0
4.93200119575972 0.9247090920592975 0.0
6.20679636316332 1.642443126922768 0.0
7.418963044745086 1.587405313446662 0.0
2.98103695524982 0.412594686552066 0.0
2.420975602092416 1.592770352831584 0.0
7.97902439790374 0.4072296471687943 0.0
6.779024397902082 0.4072296471687297 0.0
1.130444757308209 0.9859238872709168 0.0
0.8901814758011342 1.60566856081121 0.0
4.263670373274499 0.9915754392410991 0.0
3.096698167273431 1.009056907826855 0.0
6.088506433998166 0.9857489435828969 0.0
1.902225037409936 1.003483800311746 0.0
7.288506433998439 0.9857489435828686 0.0
8.498964973312972 1.005823551167602 0.0
2.307571737417198 1.008136792450924 0.0
8.100397971125554 1.000138280273345 0.0
6.900397971125225 1.000138280273792 0.0
3.499307350770321 0.9996496628144824 0.0
5.703656022566558 0.9885479657552226 0.0
4.719420624357892 1.622286409566126 0.0
4.099803549896894 0.3600308081356619 0.0
1.286100671532495 0.3637431910670685 0.0
9.120549139677793 1.655065205594329 0.0
9.11726214008418 0.3400668903113251 0.0
4.642568097328033 0.3514924793220939 0.0
9.630437629189052 0.3309104953729904 0.0
9.674493769554315 1.668196579944218 0.0
1.936458797611609 0.3337070483410596 0.0
3.461817573918652 0.3447876019040473 0.0
8.440152788772068 1.649667667046397 0.0
6.973083089482548 1.643748677366674 0.0
3.126874515006838 1.659115470008545 0.0
6.070607878384977 0.3410183041038941 0.0
7.255014454789089 0.32792256737713 0.0
8.462493615948901 0.3368393217476116 0.0
9.236261261261264 0.9276047786917867 0.0
5.885444386845415 1.667751020273455 0.0
0.8062340689595878 0.3261579034781319 0.0
2.29463843780282 0.308358158429197 0.0
8.10536156219338 1.691641841570632 0.0
4.041916759198581 0.7211683801597477 0.0
1.324377365289917 0.710525897087282 0.0
9.023167917315867 1.292262965009952 0.0
2.044244009166302 1.693807225416931 0.0
0.7675765545556328 0.8969765944392112 0.0
2.86965991063896 0.7069213925303978 0.0
6.330340089355722 1.293078607468788 0.0
7.530340089355831 1.29307860746885 0.0
2.509347777214458 1.27231292939881 0.0
7.890652222779963 0.7276870706009825 0.0
6.690652222780154 0.7276870706013264 0.0
4.380959112578968 1.65866292149053 0.0
0.3278422400819535 1.233362752678148 0.0
5.754468991464942 0.3469215055361071 0.0
9.69195804401614 0.7000195364707393 0.0
9.691250997975434 1.303243780084337 0.0
5.54324561063747 1.237401556904767 0.0
9.044596057577811 0.6843248705785732 0.0
5.208929198448351 0.3519433027337513 0.0
3.708880196230617 1.249762029554333 0.0
1.713349558540635 1.234899745098077 0.0
4.586522821995393 0.9261740906803194 0.0
5.241145838821565 0.7007005766013242 0.0
1.434457446926135 1.701926055218157 0.0
0.2821921707428039 0.3393165318407161 0.0
3.42846431357046 1.714274134409306 0.0
5.26283485467567 1.710141275531951 0.0
3.966530105129177 1.718376080180638 0.0
4.891301048299285 1.259923533724591 0.0
0.2787500712946937 0.6906723798523376 0.0
1.822166578929051 0.7301892210727335 0.0
8.593276160688786 1.287322908694633 0.0
2.386017956680413 0.7288816957021155 0.0
3.576911792171353 0.7225526638483954 0.0
8.013982043315597 1.271118304297217 0.0
6.82303669320588 1.277631295759485 0.0
2.891837633696712 1.215141906356511 0.0
8.708162366297856 0.7848580936429009 0.0
7.496736072543097 0.7897651325976158 0.0
6.296736072542775 0.7897651325982009 0.0
5.523181420933933 0.7588744249744506 0.0
4.725538117155759 0.6529070682798582 0.0
2.736307197014292 0.273961667653487 0.0
7.663692802980817 1.726038332346062 0.0
6.446842959287713 1.783714797320288 0.0
1.126188383272983 1.743715177525389 0.0
2.64757240694847 1.787239829472812 0.0
6.546646507559373 0.2589894635657943 0.0
7.746646507561152 0.2589894635657218 0.0
4.079302268890254 1.221431431691139 0.0
4.433746883463333 0.2983726043497702 0.0
1.032697650548726 1.318076986199429 0.0
1.309492735411376 1.208980965369829 0.0
3.896105387998365 0.2579746081881307 0.0
9.378751775005455 1.725996478164223 0.0
9.3965279828929 0.2649862374471925 0.0
1.515757555362918 0.2603060454608533 0.0
4.959097093232828 1.726144293543605 0.0
4.912501341257775 0.2529154558175828 0.0
4.342421824442713 1.285376618065631 0.0
7.023506283123107 0.293611963231815 0.0
8.215829626877609 0.2682061590942965 0.0
5.28145265730745 1.291130016052329 0.0
8.693992162747364 1.744100892812201 0.0
0.6256567126095668 1.775064851453201 0.0
0.2724967459749605 1.756941612685287 0.0
8.90781713264278 0.2741674349222226 0.0
7.184202236567151 1.709454269177068 0.0
3.212962614055919 0.2641656831057426 0.0
0.6761590188374282 0.6746441670621973 0.0
1.020489328989316 0.2487299689497893 0.0
1.485017749467193 1.402133856149482 0.0
6.734223224917944 1.790518105434539 0.0
2.657549589911705 0.7636227781082678 0.0
6.542590471647475 1.237213715285722 0.0
7.742745187066703 1.235538225115726 0.0
0.5794341726414672 0.2480285055479751 0.0
1.842901067642841 1.760146518280044 0.0
3.84389577648662 0.7524680119172447 0.0
3.061589173628368 1.407936939342627 0.0
6.144447294584154 0.5911674363009913 0.0
7.344447294585433 0.5911674362995804 0.0
8.544447294586682 0.5911674362982269 0.0
5.491507940982565 0.1734458797927824 0.0
[...]
<PointData Vectors="fields">
<DataArray type="Float64" Name="U" NumberOfComponents="3" format="ascii">
0.0 0.0 0.0
0.03285493946488811 0.0 0.0
0.0027434599996509655 -0.006111638510155348 0.0
0.01633603183560941 -0.052437519767715414 0.0
0.029918812595938416 -0.005729211672219591 0.0
0.00035456397067292963 -0.006286125642919059 0.0
0.0010429220706470919 -0.010308142346018187 0.0
0.0016617934234695437 -0.013864789352656753 0.0
0.002179261167743949 -0.01698651693717495 0.0
0.0026329189383108263 -0.01996553033948795 0.0
0.0030709489429822353 -0.022826780910529854 0.0
0.003511477399040559 -0.02557985326767104 0.0
0.00399530519985563 -0.02823992712233522 0.0
0.004494575183867687 -0.030808233142416624 0.0
0.005033185426518534 -0.03325671179823926 0.0
0.005598125977911423 -0.03558463124428562 0.0
0.0062130824088816455 -0.037794251727360575 0.0
0.006838175043211792 -0.03986704075997498 0.0
0.007526162883845392 -0.04180340621217994 0.0
0.008211206436508264 -0.04359542755846654 0.0
0.00895151294872206 -0.04523587601232073 0.0
0.00969462001360225 -0.04671090500298971 0.0
0.010476371984633791 -0.04803174907079058 0.0
0.011265241520224475 -0.04915485878068719 0.0
0.012062823568594798 -0.05016244880564082 0.0
0.012893296181604001 -0.05097402127152568 0.0
0.013715471671501552 -0.05160442936374223 0.0
0.014562748904292995 -0.0520650182864314 0.0
0.015396703292054463 -0.05233631365187496 0.0
0.016265479163402322 -0.0524366770991347 0.0
0.017110539668890153 -0.0523567956908938 0.0
0.017955266098957336 -0.05209187303934681 0.0
0.0187961073971326 -0.051650816301624734 0.0
0.019626048626638026 -0.05102744581286973 0.0
0.02043298601037606 -0.05023549547279008 0.0
0.021256427704914163 -0.049281952676220764 0.0
0.022035204353301273 -0.04811167925692094 0.0
0.022815591968874272 -0.046831427945189845 0.0
0.02355959825514115 -0.04538357506867776 0.0
0.02430165368194548 -0.04375352196954687 0.0
0.025000975493291996 -0.041975816566772954 0.0
0.025674507971319115 -0.0400590104573762 0.0
0.026299765025294988 -0.03796976014841674 0.0
0.026911213363867533 -0.03579695022372702 0.0
0.027475516629179905 -0.033491653665106896 0.0
0.02801901562573977 -0.03105719937110282 0.0
0.028519193470035134 -0.02850364747204832 0.0
0.028998645763046817 -0.025858788907823182 0.0
0.02943694639431688 -0.023112510165386572 0.0
0.02988510037914964 -0.0202603162208847 0.0
0.030324638239891413 -0.01730572445626743 0.0
0.03081373741980059 -0.014183782902095253 0.0
0.03135607952107017 -0.010794632693483451 0.0
0.03219762426097966 -0.006756445093781829 0.0
0.02773721914080817 -0.00241903436012501 0.0
0.024443919987035996 -0.0037410210911750044 0.0
0.021453823205596533 -0.004580109315308624 0.0
0.018711385987359285 -0.005213586698707754 0.0
0.0160505102280921 -0.005611059411676156 0.0
0.013438612305777902 -0.005869806061744316 0.0
0.010829089693070107 -0.00602645272691214 0.0
0.008180270476261547 -0.006096749356771888 0.0
0.005483955114303108 -0.0061113230699898 0.0
0.0027415028309032098 -0.008862329007298764 0.0
0.0027493580079016094 -0.011648847564195654 0.0
0.00280163236226464 -0.0144783416426249 0.0
0.002921604053937899 -0.01733703807924733 0.0
0.003119651200900911 -0.020184108588466233 0.0
0.00338848881801772 -0.022981957800929178 0.0
0.0037307682818053575 -0.025742834769650107 0.0
0.004131658667994098 -0.028405399954624995 0.0
0.004592248821536768 -0.030968663128666238 0.0
0.0051173005641593945 -0.0334293135186728 0.0
0.00566660247506481 -0.03576108839300314 0.0
0.006284723628407894 -0.03796906070449064 0.0
0.0069097168578764615 -0.04003965748549586 0.0
0.007593659935428243 -0.04196598837965087 0.0
0.008297090937802808 -0.04374883753681819 0.0
0.009027976632619495 -0.045375440924095505 0.0
0.009765537883096764 -0.04680574317465135 0.0
0.010543290012161134 -0.04814333028955477 0.0
0.011338755270959941 -0.049270718371161856 0.0
0.012129666286616495 -0.05023481984314955 0.0
0.012955572414356801 -0.05103601065755481 0.0
0.013807227693040443 -0.051653010425232335 0.0
0.014628947959847791 -0.052091872052844136 0.0
0.015488588884962112 -0.05235622556771334 0.0
0.017203046691541615 -0.05232465080432399 0.0
0.01803166861554479 -0.05205063269515292 0.0
0.01885253276069722 -0.05160036428080221 0.0
0.019691703392744293 -0.050982548375371174 0.0
0.020521863131648336 -0.05016426266656529 0.0
0.02134758285390876 -0.0491762122657894 0.0
0.022118296930875143 -0.048027529570897995 0.0
0.022896488686782863 -0.04670878943974019 0.0
0.023647741401558252 -0.04523570461369995 0.0
0.02438664610103687 -0.04359850565535718 0.0
0.02507564498972438 -0.04177228293411971 0.0
0.025756623947007888 -0.03985947015353344 0.0
0.026387240554964803 -0.03776987367023731 0.0
0.02697965492096796 -0.035546474516711564 0.0
0.027552111421601168 -0.03319520363211083 0.0
0.028070857192731696 -0.030723023792168427 0.0
0.028525422700696915 -0.028147876309259752 0.0
0.028943507765740343 -0.025463356745042198 0.0
0.02928248665912568 -0.022701266875778368 0.0
0.02955381395316424 -0.019869882876047493 0.0
0.029742214512899715 -0.017011767958584213 0.0
0.02985473689377388 -0.01413898163350536 0.0
0.02990986949495013 -0.011296887824338747 0.0
0.029923098588009622 -0.008491392525317018 0.0
0.027163511358647103 -0.005730593799782341 0.0
0.024451604794530034 -0.005716642528167806 0.0
0.021792006642491177 -0.00565153041566329 0.0
0.019161145948191027 -0.005501514876376847 0.0
0.01653977048736956 -0.005224821385021767 0.0
0.013866934159577186 -0.004831970381811559 0.0
0.011109703745497726 -0.004204439619634444 0.0
0.008129891559482723 -0.0033372506485133875 0.0
0.004587313354403809 -0.001885825858184109 0.0
0.015957358092896327 -0.027064776226766642 0.0
0.01595807811743291 -0.04108401146931273 0.0
0.016322062263804952 -0.05005501060719273 0.0
0.016343207715498003 -0.021528806096332197 0.0
0.016047411675168922 -0.03703402596452063 0.0
0.016149504087128737 -0.04780018132670315 0.0
0.016291838227920043 -0.052662712793691266 0.0
0.019136454587863422 -0.016490134314929968 0.0
0.01668257119472631 -0.05248271696263086 0.0
0.012832512602576769 -0.03467438857141079 0.0
0.014109155631735188 -0.04624837465300648 0.0
0.012505827654320872 -0.029922479312672164 0.0
0.01368573348112657 -0.04309108480441009 0.0
0.015236267101173262 -0.05106293497056987 0.0
0.018661075354210323 -0.046090556810468544 0.0
0.019713776762229313 -0.03485932408957117 0.0
0.017615060697467717 -0.05089652423573458 0.0
0.019290929587456443 -0.043127925391725955 0.0
0.020542786682236875 -0.02989964193477912 0.0
0.015432995673943586 -0.05204572404446768 0.0
0.011900279038202403 -0.019790464453098146 0.0
0.021159292364126957 -0.014522896760534384 0.0
0.011092833486520359 -0.014706167923629958 0.0
0.016227306229553262 -0.05276443921918579 0.0
0.02218722247295618 -0.023504883185487435 0.0
0.017974128510557345 -0.051060903571326886 0.0
0.016150581441298495 -0.05274128720661846 0.0
0.010477400030056414 -0.028790196391593564 0.0
0.01176564437333902 -0.0399034648913829 0.0
0.013823192795304551 -0.04931910193398443 0.0
0.009645707189877421 -0.023601918600838705 0.0
0.01122154946139406 -0.035747180524228074 0.0
0.013095000988400777 -0.04689316519399628 0.0
0.020389895353974858 -0.042022528060149264 0.0
0.01898449611897842 -0.048412168798547206 0.0
0.020961366487946758 -0.038187182556440595 0.0
0.02249612225483547 -0.023461631009340973 0.0
0.009846884732734824 -0.012365406203134782 0.0
0.017252231269397247 -0.05230129559876383 0.0
0.02274631125742935 -0.029393721468502165 0.0
0.023776086862541942 -0.011961770924765606 0.0
0.015000088118612136 -0.05207030449055415 0.0
0.019413129796081344 -0.0486909413785708 0.0
0.015751596472920265 -0.011524756080410915 0.0
0.016087351973363882 -0.011608617335979083 0.0
0.016268965392829154 -0.052853039889007615 0.0
0.013148921703576802 -0.049468615687597 0.0
0.010871070360307608 -0.04005883103346852 0.0
0.011609277143528664 -0.04366130047201374 0.0
0.022112732056731806 -0.03820167314163923 0.0
0.022753862639418677 -0.033909417887211135 0.0
0.020480633917822167 -0.045774622786231664 0.0
0.016250255766676918 -0.021908047833121762 0.0
0.024285791545323593 -0.018357146342814483 0.0
0.016267868496648363 -0.05160669038333772 0.0
0.01636433108454418 -0.04476284149523152 0.0
0.016358443975720973 -0.050235166225315715 0.0
0.01635522042965347 -0.032292914012909776 0.0
0.016421052825205236 -0.04146776948170068 0.0
0.016165435410920654 -0.02735547341159356 0.0
0.0163825857751966 -0.03707272026946334 0.0
0.016272506968450704 -0.03249818104662629 0.0
0.016292832896603018 -0.04493805274718119 0.0
0.016289902696914726 -0.047777179837062485 0.0
0.01631864568142703 -0.05176569605730855 0.0
0.017046213106045455 -0.05251449984463427 0.0
0.013896228346191974 -0.050839968298605556 0.0
0.008218056406536625 -0.02414587502825069 0.0
0.007689322373335452 -0.018520780076945895 0.0
0.025074697002324633 -0.018629672791938272 0.0
0.015306500408483366 -0.05238810925520185 0.0
0.025390904464838555 -0.01032405253534232 0.0
0.007280105081945415 -0.01058860132775606 0.0
0.00880893769797289 -0.032642753471416444 0.0
0.012194596052777605 -0.04737177910034735 0.0
0.008484878285228288 -0.0280041705158767 0.0
0.01129375267390129 -0.044188460300437736 0.0
0.021231241674865117 -0.04486073595981791 0.0
0.01917113859132658 -0.050152768928901637 0.0
0.022168699104931824 -0.04165189629620709 0.0
0.024333312613609808 -0.02782179201496035 0.0
0.016998068649011336 -0.016821129180405327 0.0
0.013879849727701076 -0.050949097687823984 0.0
0.007197761075088913 -0.017162472939252025 0.0
0.009209156329179959 -0.036806395091805874 0.0
0.008508786691288371 -0.03228559491691059 0.0
0.015192358934593364 -0.05072724281745574 0.0
0.012760430969291792 -0.024689006021751347 0.0
0.01241945866483439 -0.019959212234179683 0.0
0.023890064080002927 -0.03387912185156343 0.0
0.015185555621783763 -0.01655092139326411 0.0
0.013863509544781544 -0.042766585549145905 0.0
0.014736704337245419 -0.04892283957879695 0.0
0.01350892493352037 -0.03900364274921105 0.0
0.018872521020277915 -0.03921726167268969 0.0
0.019165856929809176 -0.03501582309676311 0.0
0.018118760952202047 -0.046543276838620654 0.0
0.018016663888975947 -0.0517959458674915 0.0
0.019638791012101076 -0.01008552680733329 0.0
0.018311860579011286 -0.051422545488199925 0.0
0.019953942615358673 -0.009617703042490449 0.0
0.012067345539474365 -0.010221391407797521 0.0
0.015771224159269973 -0.05218654178931319 0.0
0.02023432862754739 -0.019691232665712377 0.0
0.016836020154777684 -0.05259851194913556 0.0
0.01760559267064611 -0.04905071310143967 0.0
0.01905265911306826 -0.029863153912182673 0.0
0.016168685424765156 -0.052446951595285 0.0
0.016578059487444986 -0.05270626294589722 0.0
0.02497958356575749 -0.026036090011558696 0.0
0.007285403372240848 -0.008320223886759183 0.0
0.020868326415973366 -0.047095654147773766 0.0
0.015543462304259298 -0.052508846874300304 0.0
0.019383804349138313 -0.05022317900448277 0.0
0.016418306446909864 -0.05278729354941493 0.0
0.01248060041593256 -0.008783822046379543 0.0
0.013242791959720621 -0.031287942443551806 0.0
0.012739263436985872 -0.026022642007234156 0.0
0.01363601605542358 -0.03791731704254341 0.0
0.014701956044745853 -0.04824579558600591 0.0
0.013340902781458715 -0.0335157847938177 0.0
0.014315310970204356 -0.04552540218960756 0.0
0.01806265070772131 -0.042964482840135494 0.0
0.018880171906426796 -0.024509736344536792 0.0
0.018271540460948373 -0.03936331218855145 0.0
0.017389114899281768 -0.049114084643149064 0.0
0.016801619743085628 -0.052232807456283496 0.0
0.01588486776735775 -0.05262497835932352 0.0
0.009859949272320378 -0.041362552911133096 0.0
0.008996961061199888 -0.03742460467487324 0.0
0.011698733021618727 -0.047988709945729006 0.0
0.025905629888022374 -0.021727558907552038 0.0
0.023527102993835286 -0.040450897148249086 0.0
0.020919766231624188 -0.04737247519123562 0.0
0.023942413924322656 -0.03653126469865249 0.0
0.01713301859115012 -0.050885270723852426 0.0
0.014609742520019767 -0.05190784550761729 0.0
0.0204898963642357 -0.020452389678749898 0.0
0.018970256648402108 -0.02441207527618534 0.0
0.01288589177110533 -0.0498590272693185 0.0
0.006584975450364311 -0.014796896045297783 0.0
0.02644591283029719 -0.01430380958650376 0.0
0.007188554977407106 -0.027247373239396324 0.0
0.016446632797005846 -0.05263815957075825 0.0
0.015994836488563646 -0.05260368364944309 0.0
0.01707531952571505 -0.051816340349690015 0.0
0.02191945754176747 -0.04372993463244154 0.0
0.02477146679667949 -0.030973688681336844 0.0
0.015963761192925276 -0.05265031266653368 0.0
0.00695462598941427 -0.024534003565644454 0.0
0.02671535779157527 -0.014524608400438194 0.0
0.026565920844617293 -0.009493385278988619 0.0
0.0257907818833198 -0.021682438245417723 0.0
0.010252019971409631 -0.04228179337095046 0.0
0.010999192546450801 -0.045504984858614754 0.0
0.012209194070378493 -0.015132034042725898 0.0
0.0062867594948959995 -0.02034362494983307 0.0
0.021209266601024745 -0.0267898209613698 0.0
0.010794295692542411 -0.04599752580879815 0.0
0.014163452637424469 -0.04074504206281797 0.0
0.014838311563869121 -0.04758883003274684 0.0
0.01390074414404981 -0.036691347158201965 0.0
0.00581713135748875 -0.013552926503410435 0.0
0.025038346064134548 -0.03136912554036536 0.0
0.015119315123432998 -0.049777913005044666 0.0
0.019414856625331812 -0.04440566763277609 0.0
0.018178466372798817 -0.04988370470828986 0.0
0.019947915309747904 -0.04086728618412035 0.0
0.021224719513411372 -0.026755777314387545 0.0
0.017967164336770838 -0.052048250138668435 0.0
0.013665936791276789 -0.027933165399727355 0.0
0.022581095165958496 -0.043162700057704735 0.0
0.023515808084025577 -0.03966829070997902 0.0
0.020202633667619388 -0.04915011001932615 0.0
0.0225507965283032 -0.015299096785041301 0.0
0.013652643920541833 -0.014670958104326455 0.0
0.014204705694286491 -0.05156906535009578 0.0
0.01817627781531634 -0.04989332173287196 0.0
0.008638077052593052 -0.039055108222328945 0.0
0.007756064973586656 -0.03481291765870636 0.0
0.017688603652225163 -0.05156211213397761 0.0
0.013290234446312572 -0.02348091983013211 0.0
0.02201511795218713 -0.03287990625065921 0.0
0.018622699700207097 -0.013285171479001996 0.0
0.018960891111808015 -0.05109885342650647 0.0
0.023012058090841354 -0.007873758176236261 0.0
0.012042177516451102 -0.04855385800218898 0.0
0.007139971124997809 -0.030251483430771407 0.0
0.017278117003387022 -0.05224321947017454 0.0
0.012818924381943465 -0.05006010407373274 0.0
0.018642045602341513 -0.04789767811187909 0.0
0.024531601544452847 -0.03659202208702567 0.0
0.016271617652005157 -0.05283810760989608 0.0
0.01686129973401554 -0.008762334297954243 0.0
0.015193457827069184 -0.05179207514377476 0.0
0.015962852808854892 -0.05106067576184277 0.0
0.015177526724664924 -0.029960397879029627 0.0
0.015507386695007295 -0.04310906986930552 0.0
0.015307850696461048 -0.034687948873196754 0.0
0.015626779188720578 -0.04625004528377554 0.0
0.0061364883428706735 -0.021030473400487797 0.0
0.017259584794339578 -0.008439337486238815 0.0
0.020412966884376306 -0.048985809781486436 0.0
0.01630769528653736 -0.052835840107685564 0.0
0.015809022313596825 -0.05263493130043272 0.0
0.012908478947578989 -0.011611938469618275 0.0
0.0264680250482158 -0.024562764532693848 0.0
0.02063309858189967 -0.03272160517793179 0.0
0.020648928516023856 -0.03695484718064656 0.0
0.019190102383508035 -0.04503823744962642 0.0
0.01284251009363861 -0.04117299932070603 0.0
0.01333965044632368 -0.04462927412109142 0.0
0.014594068476423106 -0.050151738321628496 0.0
0.0074810523060215225 -0.03468850289531518 0.0
0.0067472167039081725 -0.029958004618740933 0.0
0.013615157803023643 -0.04827467902539667 0.0
0.01171038485165739 -0.03800665178669024 0.0
0.012264893824679803 -0.04189067736297778 0.0
0.018808579748186907 -0.03240443083183611 0.0
0.018240571483210625 -0.013831340379941985 0.0
0.009661797082341527 -0.008738110971295506 0.0
0.02248949800759144 -0.0075213638453185145 0.0
0.017095886352499784 -0.04621715736963866 0.0
0.017544132006125274 -0.034878641614418567 0.0
0.016752216734048562 -0.05097117959358713 0.0
0.017287241274681814 -0.043050340553537104 0.0
0.017660017151611553 -0.0297449693677222 0.0
0.025276265190227264 -0.028810846207329835 0.0
0.009855357193913759 -0.006723115092566375 0.0
0.02065677443413715 -0.040216976403405456 0.0
0.01929976120403793 -0.04720722172225266 0.0
0.021191306557131157 -0.03614265889292511 0.0
0.015357861303255959 -0.03915138251731137 0.0
0.015701450204889653 -0.046507025930752524 0.0
0.015243330792876144 -0.034867059119930904 0.0
0.017787843759243336 -0.05213767349605666 0.0
0.015777701794433354 -0.049057216438605195 0.0
0.011545155889956102 -0.03654886854389929 0.0
0.011076342559093672 -0.03198768529541777 0.0
0.019236554743659616 -0.050800523076330546 0.0
0.016744648003163776 -0.05262698891572391 0.0
0.013723570259557383 -0.02213020887487915 0.0
0.015256507672045906 -0.024413041635542802 0.0
0.01496492895055175 -0.018922088969268967 0.0
0.014424191652825116 -0.05060418466740386 0.0
0.015323492162086012 -0.02979947273497889 0.0
0.008653154868383446 -0.03914722193786323 0.0
0.009648646683446309 -0.042854404116358644 0.0
0.016375965954282413 -0.05266492355556236 0.0
0.02463063235312421 -0.034410922977499245 0.0
0.021618767005964996 -0.04604773547523179 0.0
0.012651381322977242 -0.0460154538318562 0.0
0.011998560291225686 -0.04278061575813525 0.0
0.010504693705816578 -0.025220108943456172 0.0
0.027419915737770674 -0.006888615170665462 0.0
0.005632466155441948 -0.00900581257694867 0.0
0.01726019377285684 -0.018709865395711275 0.0
0.016975809807017544 -0.0517460612781136 0.0
0.01598195055200984 -0.05095308511382364 0.0
0.015636063177881063 -0.051531660461271715 0.0
0.01437881388292242 -0.008694245285141731 0.0
0.014699287552525272 -0.052090796262717516 0.0
0.026861246599886323 -0.018762251223433363 0.0
0.015481377698950447 -0.02444054929438365 0.0
0.021496203139045607 -0.012829783342965362 0.0
0.014886045279545996 -0.051326178534861974 0.0
0.0157620007215524 -0.04302457491872448 0.0
0.015930756543096954 -0.049184631612573027 0.0
0.015639373956520004 -0.039458293321366245 0.0
0.010629688764536762 -0.022517588651135317 0.0
0.010837528088804366 -0.03132134782960553 0.0
0.010434102387931285 -0.026251255886150543 0.0
0.013549512070665213 -0.04821369348164781 0.0
0.01285325336227562 -0.045448067422546444 0.0
0.016554528288873785 -0.05218449597354376 0.0
0.013111872312204408 -0.05069263428910735 0.0
0.022559993548714085 -0.021055590833207027 0.0
0.022765901601445253 -0.02990844495677883 0.0
0.020812672650548845 -0.04308857515099689 0.0
0.01579759211128194 -0.05175983123332593 0.0
0.018279425759663025 -0.050960132168454554 0.0
0.005482960683555902 -0.024648928813277245 0.0
0.009948797482806974 -0.020531909451530224 0.0
0.010444243588618299 -0.017667827039227372 0.0
0.018915526722827432 -0.02695231353349323 0.0
0.017966408147333482 -0.04449855082908963 0.0
0.01829991647617552 -0.0411058097415984 0.0
0.017311120520240586 -0.05002122028110838 0.0
0.020091132087634897 -0.046393700953673615 0.0
0.014839660464795214 -0.044676876272659545 0.0
0.015472224586480609 -0.05017261553021774 0.0
0.014601260479037653 -0.041274155256515954 0.0
0.026722016813968675 -0.011930118243268392 0.0
0.016211283007939534 -0.052327136573441346 0.0
0.01894476374299573 -0.04123990439848482 0.0
0.019162886329343883 -0.03762874677073398 0.0
0.017980799179101007 -0.048125487686364564 0.0
0.017512117521196652 -0.04765076197734813 0.0
0.011989552737294159 -0.048932681579321256 0.0
0.016604616868147622 -0.052710234408902615 0.0
0.017831907640190013 -0.04475153885035636 0.0
0.018558569783287168 -0.03224592038128909 0.0
0.018489924123957512 -0.021778335521129046 0.0
0.021735361320229022 -0.045817787209668046 0.0
0.010119373108354793 -0.01203065707297554 0.0
0.022058601835631703 -0.011403942956996135 0.0
0.024054233178696652 -0.03880265631213484 0.0
0.009068071727813739 -0.01986203658393566 0.0
0.015087668362041099 -0.052114115672213766 0.0
0.022328435357845032 -0.017297188975045657 0.0
0.021695966712956816 -0.017675500543608107 0.0