<VTKFile type="UnstructuredGrid"  version="0.1">
<UnstructuredGrid>
<Piece NumberOfPoints="713" NumberOfCells="1304">
<Points>
<DataArray type="Float64" NumberOfComponents="3" format="ascii">
0.0 0.0 0.0
10.0 0.0 0.0
10.0 2.0 0.0
5.0 2.0 0.0
0.0 2.0 0.0
0.199999999999856 0.0 0.0
0.3999999999996677 0.0 0.0
0.5999999999994683 0.0 0.0
0.7999999999993286 0.0 0.0
0.9999999999991888 0.0 0.0
1.199999999999033 0.0 0.0
1.399999999998576 0.0 0.0
1.599999999997992 0.0 0.0
1.799999999997408 0.0 0.0
1.999999999996825 0.0 0.0
2.199999999996241 0.0 0.0
2.399999999995657 0.0 0.0
2.599999999995073 0.0 0.0
2.79999999999449 0.0 0.0
2.999999999993906 0.0 0.0
3.199999999993322 0.0 0.0
3.399999999992738 0.0 0.0
3.599999999992154 0.0 0.0
3.799999999991571 0.0 0.0
3.999999999991022 0.0 0.0
4.199999999991187 0.0 0.0
4.399999999991491 0.0 0.0
4.599999999991795 0.0 0.0
4.799999999992099 0.0 0.0
4.999999999992403 0.0 0.0
5.199999999992706 0.0 0.0
5.39999999999301 0.0 0.0
5.599999999993313 0.0 0.0
5.799999999993618 0.0 0.0
5.999999999993922 0.0 0.0
6.199999999994227 0.0 0.0
6.39999999999453 0.0 0.0
6.599999999994833 0.0 0.0
6.799999999995138 0.0 0.0
6.999999999995442 0.0 0.0
7.199999999995747 0.0 0.0
7.39999999999605 0.0 0.0
7.599999999996353 0.0 0.0
7.799999999996658 0.0 0.0
7.999999999996962 0.0 0.0
8.199999999997265 0.0 0.0
8.399999999997569 0.0 0.0
8.599999999997873 0.0 0.0
8.799999999998176 0.0 0.0
8.99999999999848 0.0 0.0
9.199999999998786 0.0 0.0
9.399999999999089 0.0 0.0
9.599999999999392 0.0 0.0
9.799999999999697 0.0 0.0
10.0 0.1999999999996293 0.0
10.0 0.3999999999991157 0.0
10.0 0.5999999999985328 0.0
10.0 0.7999999999979498 0.0
10.0 0.9999999999973885 0.0
10.0 1.199999999997894 0.0
10.0 1.39999999999842 0.0
10.0 1.599999999998947 0.0
10.0 1.799999999999474 0.0
9.799999999999999 2.0 0.0
9.6 2.0 0.0
9.399999999999999 2.0 0.0
9.2 2.0 0.0
8.999999999999998 2.0 0.0
8.799999999999999 2.0 0.0
8.599999999999998 2.0 0.0
8.399999999999999 2.0 0.0
8.2 2.0 0.0
7.999999999999998 2.0 0.0
7.799999999999999 2.0 0.0
7.599999999999999 2.0 0.0
7.399999999999999 2.0 0.0
7.199999999999999 2.0 0.0
7.0 2.0 0.0
6.799999999999999 2.0 0.0
6.6 2.0 0.0
6.399999999999999 2.0 0.0
6.199999999999999 2.0 0.0
5.999999999999999 2.0 0.0
5.8 2.0 0.0
5.6 2.0 0.0
5.399999999999999 2.0 0.0
5.199999999999999 2.0 0.0
4.8 2.0 0.0
4.6 2.0 0.0
4.399999999999999 2.0 0.0
4.199999999999998 2.0 0.0
3.999999999999999 2.0 0.0
3.799999999999999 2.0 0.0
3.599999999999999 2.0 0.0
3.399999999999999 2.0 0.0
3.199999999999998 2.0 0.0
2.999999999999999 2.0 0.0
2.799999999999999 2.0 0.0
2.599999999999999 2.0 0.0
2.399999999999999 2.0 0.0
2.199999999999999 2.0 0.0
2.0 2.0 0.0
1.799999999999999 2.0 0.0
1.599999999999999 2.0 0.0
1.399999999999999 2.0 0.0
1.199999999999999 2.0 0.0
0.9999999999999991 2.0 0.0
0.7999999999999998 2.0 0.0
0.5999999999999996 2.0 0.0
0.3999999999999995 2.0 0.0
0.1999999999999993 2.0 0.0
0.0 1.799999999999167 0.0
0.0 1.6 0.0
0.0 1.400000000001387 0.0
0.0 1.200000000002774 0.0
0.0 1.000000000004117 0.0
0.0 0.8000000000033287 0.0
0.0 0.6000000000024965 0.0
0.0 0.4000000000016644 0.0
0.0 0.200000000000832 0.0
1.499207686858938 0.9671416246672391 0.0
2.690335006295381 0.9619521672166851 0.0
3.892537609238439 1.007271393615351 0.0
8.916602958236062 0.9848120741100651 0.0
7.714518201951718 1.024234589865042 0.0
6.514518201951581 1.024234589865268 0.0
5.299999999999998 1.000000000000349 0.0
0.7620577975594133 1.201991596673393 0.0
4.61755859746166 1.240410629378135 0.0
2.099999999996533 0.6749999999988996 0.0
3.289480163184942 0.6802242156869155 0.0
8.299999999999976 1.325000000000064 0.0
7.110519836808121 1.319775784312006 0.0
5.893184537067197 1.292851873188582 0.0
3.268568008578649 1.341967835735878 0.0
2.118368267083699 1.321829331075689 0.0
5.930896443153832 0.6493414313150682 0.0
7.106926174231782 0.6329785805444448 0.0
8.306926174233002 0.6329785805444098 0.0
4.427960725065653 0.6389803625370323 0.0
0.9828791719046732 0.6520555711814596 0.0
9.383333333333349 0.6166666666667164 0.0
9.383333333333326 1.383333333333367 0.0
4.974443803660211 0.5526668589022862 0.0
1.248084267804327 1.464555585366204 0.0
4.139486343919472 1.468449088519687 0.0
5.077806736162063 1.478342020848787 0.0
1.629462398503482 0.5098631373669138 0.0
2.579462070540726 0.5133714280880515 0.0
3.770778974032556 0.5099482598296803 0.0
8.764748922637567 1.526880805960684 0.0
7.820537929455645 1.486628571911716 0.0
6.632254923791462 1.492045881343967 0.0
2.796478414430566 1.477149214423874 0.0
6.403521585563812 0.5228507855762514 0.0
7.603521585564883 0.5228507855756581 0.0
8.783559188644787 0.5066440811355862 0.0
0.5060338924245764 0.5082251307884346 0.0
5.451633334958382 0.4799315318847731 0.0
1.683269995544083 1.547372422998862 0.0
0.448590368789599 1.551409631210402 0.0
5.545526974704655 1.582008455135239 0.0
3.666056976948354 1.56999765613834 0.0
0.4385739326402744 0.9352922270094057 0.0
9.58170539854767 0.9922137522194456 0.0
4.93200119575972 0.9247090920592975 0.0
6.20679636316332 1.642443126922768 0.0
7.418963044745086 1.587405313446662 0.0
2.98103695524982 0.412594686552066 0.0
2.420975602092416 1.592770352831584 0.0
7.97902439790374 0.4072296471687943 0.0
6.779024397902082 0.4072296471687297 0.0
1.130444757308209 0.9859238872709168 0.0
0.8901814758011342 1.60566856081121 0.0
4.263670373274499 0.9915754392410991 0.0
3.096698167273431 1.009056907826855 0.0
6.088506433998166 0.9857489435828969 0.0
1.902225037409936 1.003483800311746 0.0
7.288506433998439 0.9857489435828686 0.0
8.498964973312972 1.005823551167602 0.0
2.307571737417198 1.008136792450924 0.0
8.100397971125554 1.000138280273345 0.0
6.900397971125225 1.000138280273792 0.0
3.499307350770321 0.9996496628144824 0.0
5.703656022566558 0.9885479657552226 0.0
4.719420624357892 1.622286409566126 0.0
4.099803549896894 0.3600308081356619 0.0
1.286100671532495 0.3637431910670685 0.0
9.120549139677793 1.655065205594329 0.0
9.11726214008418 0.3400668903113251 0.0
4.642568097328033 0.3514924793220939 0.0
9.630437629189052 0.3309104953729904 0.0
9.674493769554315 1.668196579944218 0.0
1.936458797611609 0.3337070483410596 0.0
3.461817573918652 0.3447876019040473 0.0
8.440152788772068 1.649667667046397 0.0
6.973083089482548 1.643748677366674 0.0
3.126874515006838 1.659115470008545 0.0
6.070607878384977 0.3410183041038941 0.0
7.255014454789089 0.32792256737713 0.0
8.462493615948901 0.3368393217476116 0.0
9.236261261261264 0.9276047786917867 0.0
5.885444386845415 1.667751020273455 0.0
0.8062340689595878 0.3261579034781319 0.0
2.29463843780282 0.308358158429197 0.0
8.10536156219338 1.691641841570632 0.0
4.041916759198581 0.7211683801597477 0.0
1.324377365289917 0.710525897087282 0.0
9.023167917315867 1.292262965009952 0.0
2.044244009166302 1.693807225416931 0.0
0.7675765545556328 0.8969765944392112 0.0
2.86965991063896 0.7069213925303978 0.0
6.330340089355722 1.293078607468788 0.0
7.530340089355831 1.29307860746885 0.0
2.509347777214458 1.27231292939881 0.0
7.890652222779963 0.7276870706009825 0.0
6.690652222780154 0.7276870706013264 0.0
4.380959112578968 1.65866292149053 0.0
0.3278422400819535 1.233362752678148 0.0
5.754468991464942 0.3469215055361071 0.0
9.69195804401614 0.7000195364707393 0.0
9.691250997975434 1.303243780084337 0.0
5.54324561063747 1.237401556904767 0.0
9.044596057577811 0.6843248705785732 0.0
5.208929198448351 0.3519433027337513 0.0
3.708880196230617 1.249762029554333 0.0
1.713349558540635 1.234899745098077 0.0
4.586522821995393 0.9261740906803194 0.0
5.241145838821565 0.7007005766013242 0.0
1.434457446926135 1.701926055218157 0.0
0.2821921707428039 0.3393165318407161 0.0
3.42846431357046 1.714274134409306 0.0
5.26283485467567 1.710141275531951 0.0
3.966530105129177 1.718376080180638 0.0
4.891301048299285 1.259923533724591 0.0
0.2787500712946937 0.6906723798523376 0.0
1.822166578929051 0.7301892210727335 0.0
8.593276160688786 1.287322908694633 0.0
2.386017956680413 0.7288816957021155 0.0
3.576911792171353 0.7225526638483954 0.0
8.013982043315597 1.271118304297217 0.0
6.82303669320588 1.277631295759485 0.0
2.891837633696712 1.215141906356511 0.0
8.708162366297856 0.7848580936429009 0.0
7.496736072543097 0.7897651325976158 0.0
6.296736072542775 0.7897651325982009 0.0
5.523181420933933 0.7588744249744506 0.0
4.725538117155759 0.6529070682798582 0.0
2.736307197014292 0.273961667653487 0.0
7.663692802980817 1.726038332346062 0.0
6.446842959287713 1.783714797320288 0.0
1.126188383272983 1.743715177525389 0.0
2.64757240694847 1.787239829472812 0.0
6.546646507559373 0.2589894635657943 0.0
7.746646507561152 0.2589894635657218 0.0
4.079302268890254 1.221431431691139 0.0
4.433746883463333 0.2983726043497702 0.0
1.032697650548726 1.318076986199429 0.0
1.309492735411376 1.208980965369829 0.0
3.896105387998365 0.2579746081881307 0.0
9.378751775005455 1.725996478164223 0.0
9.3965279828929 0.2649862374471925 0.0
1.515757555362918 0.2603060454608533 0.0
4.959097093232828 1.726144293543605 0.0
4.912501341257775 0.2529154558175828 0.0
4.342421824442713 1.285376618065631 0.0
7.023506283123107 0.293611963231815 0.0
8.215829626877609 0.2682061590942965 0.0
5.28145265730745 1.291130016052329 0.0
8.693992162747364 1.744100892812201 0.0
0.6256567126095668 1.775064851453201 0.0
0.2724967459749605 1.756941612685287 0.0
8.90781713264278 0.2741674349222226 0.0
7.184202236567151 1.709454269177068 0.0
3.212962614055919 0.2641656831057426 0.0
0.6761590188374282 0.6746441670621973 0.0
1.020489328989316 0.2487299689497893 0.0
1.485017749467193 1.402133856149482 0.0
6.734223224917944 1.790518105434539 0.0
2.657549589911705 0.7636227781082678 0.0
6.542590471647475 1.237213715285722 0.0
7.742745187066703 1.235538225115726 0.0
0.5794341726414672 0.2480285055479751 0.0
1.842901067642841 1.760146518280044 0.0
3.84389577648662 0.7524680119172447 0.0
3.061589173628368 1.407936939342627 0.0
6.144447294584154 0.5911674363009913 0.0
7.344447294585433 0.5911674362995804 0.0
8.544447294586682 0.5911674362982269 0.0
5.491507940982565 0.1734458797927824 0.0
[...]
<PointData Vectors="fields">
<DataArray type="Float64" Name="U" NumberOfComponents="3" format="ascii">
0.0 0.0 0.0
0.026963111080782618 0.0 0.0
0.0021899430834215515 -0.004842381939259155 0.0
0.013382750745988917 -0.04312412703850777 0.0
0.02463366177768405 -0.004521214074411924 0.0
0.0002784158661642757 -0.005061013653497656 0.0
0.0008206211248592645 -0.008339179219351692 0.0
0.0013085014596390682 -0.011250652134380786 0.0
0.0017176860659810808 -0.013819567207290537 0.0
0.0020780496594660436 -0.016276018758277437 0.0
0.002427973368720932 -0.01863945460656797 0.0
0.002782458283220814 -0.020916873823978555 0.0
0.0031746087778021354 -0.02311958398240746 0.0
0.0035819818371644625 -0.025248006242696193 0.0
0.004024093203080804 -0.02727830444499032 0.0
0.0044900205989547 -0.029208666656280722 0.0
0.004999112780148034 -0.031040405679511742 0.0
0.005517765568472244 -0.032757259301634374 0.0
0.006089703730798266 -0.034359196462254785 0.0
0.006659279020861633 -0.03583948298906476 0.0
0.007274185669171871 -0.037192126014910065 0.0
0.007889614891021723 -0.03840572608027948 0.0
0.008533828774123113 -0.039490638378666405 0.0
0.009179425718460652 -0.04041152437407163 0.0
0.009828051608447876 -0.04123723819556837 0.0
0.010499604188124446 -0.041902308327137656 0.0
0.01116182348116115 -0.042420543427224705 0.0
0.011844284717174611 -0.04280117551821081 0.0
0.012518754322780054 -0.04302885944963458 0.0
0.013226631253738727 -0.043117863485967446 0.0
0.013922292362778466 -0.043059923553250175 0.0
0.014626185696133881 -0.04285020160567765 0.0
0.015334796578038244 -0.04249472433684114 0.0
0.01604055805992633 -0.04198741781794175 0.0
0.016730805578599635 -0.04133895793281298 0.0
0.017435827535318613 -0.040554747260012 0.0
0.018101005025708675 -0.03958812163681033 0.0
0.018765425849669694 -0.03852935546115277 0.0
0.01939580778814665 -0.03732935501498671 0.0
0.020020633536389467 -0.03597682795961802 0.0
0.02060701996260195 -0.034501005191123015 0.0
0.02116957128835242 -0.032909375846308916 0.0
0.021689278001571465 -0.03117492545555406 0.0
0.02219567499839027 -0.029372025506256276 0.0
0.02266071463792499 -0.02746005770231557 0.0
0.02310583990104435 -0.025442852013584767 0.0
0.02351304842156008 -0.023328927018903794 0.0
0.023901269803349966 -0.021141296588987266 0.0
0.024254234265477966 -0.018872049291004316 0.0
0.024613265314565137 -0.016517814861207823 0.0
0.024963784970869672 -0.014081755041613495 0.0
0.025352189301112826 -0.011512611563934527 0.0
0.025781491485978348 -0.008731670972440946 0.0
0.0264460455764362 -0.005437733393727708 0.0
0.02281790284227108 -0.0019081564308124268 0.0
0.020113152700375683 -0.0029532340948832036 0.0
0.017649788885091843 -0.0036182313643420456 0.0
0.015384007885462236 -0.004122011624327176 0.0
0.01318440637423699 -0.004439534741984148 0.0
0.011024884839451358 -0.004647282831348546 0.0
0.008867926449272362 -0.0047735837243346076 0.0
0.00667951491602987 -0.004830394125458223 0.0
0.004452636718304934 -0.004842152779856388 0.0
0.0021883402033673325 -0.007113322477406162 0.0
0.0021946335370058127 -0.009413334678544775 0.0
0.0022368896086740753 -0.011748360074995265 0.0
0.002333958012883006 -0.014107307486971744 0.0
0.0024942532574265134 -0.016457211391965487 0.0
0.0027118610070304187 -0.018767769007613087 0.0
0.0029892304481021043 -0.02104880005693139 0.0
0.003314398135629409 -0.023250776818677557 0.0
0.0036888686244781043 -0.025372678970534038 0.0
0.004117110885690484 -0.027411754680631787 0.0
0.004567072996259514 -0.02934589979502345 0.0
0.005075726328791052 -0.03117909720737562 0.0
0.005592552601751256 -0.032899057341497034 0.0
0.0061605555109083745 -0.034499862903121944 0.0
0.00674690223477419 -0.035981227610291315 0.0
0.007357559101090901 -0.037331822635575676 0.0
0.007973990554473329 -0.038517633019259374 0.0
0.008624064190405786 -0.039625140871109535 0.0
0.009287255916173392 -0.04055541392770256 0.0
0.009944185980876916 -0.041348072262548365 0.0
0.010627212197554473 -0.042003642829091935 0.0
0.011327756681002752 -0.042504644305024854 0.0
0.011999286640742773 -0.04285767505616116 0.0
0.012697970975921229 -0.04306591476761762 0.0
0.014080284151130204 -0.04302361699966237 0.0
0.01474469277804528 -0.042792401288934905 0.0
0.015402455044679807 -0.0424187874421174 0.0
0.01607650195138962 -0.04190956782739553 0.0
0.016747933441062884 -0.04123760855568639 0.0
0.01742182997189039 -0.04042656201958466 0.0
0.018058705121768867 -0.03948363107122692 0.0
0.018711121323833436 -0.03839941125435759 0.0
0.019348372897441034 -0.03718666141982664 0.0
0.019981064186723945 -0.03583613528606076 0.0
0.02057397274886715 -0.034326310526748734 0.0
0.02115946134649909 -0.032743685270127186 0.0
0.02170073850711142 -0.031012310041230538 0.0
0.022206863876661292 -0.029168932608712887 0.0
0.022692148206164997 -0.027218989416973188 0.0
0.023127940296160776 -0.025169606976370704 0.0
0.023505836402575666 -0.023036079044679754 0.0
0.02384902761116463 -0.020814276156080357 0.0
0.024124448857333843 -0.018530775457869485 0.0
0.024342865280808156 -0.01619240010334561 0.0
0.02449356019242174 -0.013833521717360908 0.0
0.02458300751708822 -0.011463597424260851 0.0
0.024626689501573866 -0.009118549147575723 0.0
0.024637070847638533 -0.006802697068345265 0.0
0.022357605703970745 -0.004522334664859598 0.0
0.020115953222511286 -0.0045113657116281625 0.0
0.017915813769249823 -0.004459897629815541 0.0
0.015738465346469215 -0.0043411622493376816 0.0
0.013568426062563093 -0.00412209118050626 0.0
0.011357241039586139 -0.003811230936149247 0.0
0.009078611835746759 -0.003315071799427825 0.0
0.006623441281318668 -0.002630257125886082 0.0
0.003723805906012674 -0.001485768920239472 0.0
0.013084880095871339 -0.02214022987701306 0.0
0.013060111844930332 -0.033765272882900925 0.0
0.01333061924405636 -0.04114422050530031 0.0
0.013426076800981283 -0.017562680793015293 0.0
0.013177122419154037 -0.030397609374481303 0.0
0.013242648899859218 -0.03934167197515158 0.0
0.013320133200398073 -0.04331619624467149 0.0
0.015718551166844716 -0.013403632914823996 0.0
0.013631783974734166 -0.04313627320709557 0.0
0.010485425433251214 -0.028451495097702457 0.0
0.01152534667444627 -0.038026628588840775 0.0
0.010244713924517746 -0.02450163015860365 0.0
0.011213260880599249 -0.035433130756019386 0.0
0.012484481846777203 -0.04202842122113041 0.0
0.015256987877155905 -0.037898051653950195 0.0
0.01618803619980486 -0.028603477368087646 0.0
0.014415262140701822 -0.0418926303258962 0.0
0.01586209716409181 -0.0354600255258144 0.0
0.016907142148295147 -0.024480800571611065 0.0
0.012590456832309435 -0.042774450732114826 0.0
0.009728803870729923 -0.01612747794080646 0.0
0.017409573552266855 -0.011788715847278936 0.0
0.009085638168929131 -0.011936088708032363 0.0
0.013228429963160345 -0.043382478502742385 0.0
0.018251182612708052 -0.01919317357413352 0.0
0.014673182324964012 -0.04196724756836102 0.0
0.01321980275138081 -0.04336996815976259 0.0
0.008541896997323033 -0.023571956488525052 0.0
0.009595652628812443 -0.03278691518772762 0.0
0.011284336318273898 -0.04054362898491217 0.0
0.007883496624780204 -0.01927689411779962 0.0
0.009174582250018052 -0.029331072271495656 0.0
0.01072551267474691 -0.03859084773180147 0.0
0.01670941897114403 -0.03454104360743652 0.0
0.015577340888653488 -0.039844551170224445 0.0
0.017256961796031346 -0.031354669020568195 0.0
0.018518380464970532 -0.019157132922148306 0.0
0.008033962254129716 -0.01001702598613333 0.0
0.014076796600440743 -0.043028299119680175 0.0
0.018714408435869093 -0.024068370671839878 0.0
0.019557819759245625 -0.009668008201604721 0.0
0.012294848101382228 -0.042843306775537736 0.0
0.015847159780740135 -0.04002926957571055 0.0
0.01291317496729105 -0.009317973152670227 0.0
0.01321718419000326 -0.009385964492843565 0.0
0.013287810646453914 -0.04345145567042114 0.0
0.010775989094378461 -0.04071932959599719 0.0
0.00888058694242862 -0.032913316961723525 0.0
0.009465018838083393 -0.035894257189905104 0.0
0.018159586762492925 -0.03137522016435451 0.0
0.018744686001247245 -0.02780450271636941 0.0
0.016839025805516265 -0.03765692389065009 0.0
0.013329444478697267 -0.017874563465020515 0.0
0.019984990941761455 -0.014942405729807621 0.0
0.013284245340042244 -0.04241221179099591 0.0
0.0133830030617633 -0.036805015499940766 0.0
0.013400903108841398 -0.04135151050148855 0.0
0.013408952430715848 -0.02647473244755796 0.0
0.01348302801191405 -0.034082006548732356 0.0
0.013277808029060674 -0.02237597270406362 0.0
0.013422140069967512 -0.030440790875106715 0.0
0.013365735313338222 -0.026633950612157814 0.0
0.01337013203078162 -0.036966527431861046 0.0
0.01331116557889257 -0.039282422536634345 0.0
0.013354449758757 -0.04260060716898542 0.0
0.013938814211533295 -0.04316975641566359 0.0
0.011332843925902229 -0.041788106530226445 0.0
0.006679251797706011 -0.019726819228281123 0.0
0.0062707158222321735 -0.015083092643885755 0.0
0.020641903496193492 -0.01517013595414609 0.0
0.01246616612139259 -0.043062242051680674 0.0
0.020897674399056772 -0.00834366028119581 0.0
0.005935885039845135 -0.008538481577666316 0.0
0.007154313733935131 -0.02676720617154165 0.0
0.00994811951477164 -0.03894875938549669 0.0
0.006917726515476404 -0.02291619659449001 0.0
0.009232474478858093 -0.03634607246150654 0.0
0.01737101475156357 -0.036883087751557936 0.0
0.015702428519780365 -0.04127852205505676 0.0
0.018255876898431563 -0.034232436547856224 0.0
0.02004592563722119 -0.022761935042255883 0.0
0.01396924150509767 -0.013680367777667044 0.0
0.011380193324951141 -0.04193381511386777 0.0
0.0058491216510625065 -0.013961260270530308 0.0
0.007481520300637549 -0.03022061375144005 0.0
0.0069305436071762355 -0.02646122332971642 0.0
0.012403844679824869 -0.04169363546095603 0.0
0.010437589554639238 -0.020174578885271528 0.0
0.010180216465896128 -0.016268748297034574 0.0
0.01965370525354688 -0.027788233525068227 0.0
0.012446458740913139 -0.013455738234635875 0.0
0.011326920988304203 -0.03515638789396845 0.0
0.012078058913072157 -0.040270538949977355 0.0
0.011069144634521482 -0.032034993139428765 0.0
0.01547506277662766 -0.032218720277100224 0.0
0.015766699761387205 -0.028721768622009505 0.0
0.014876212554145923 -0.03829761746224065 0.0
0.014714649097391421 -0.04257289868772411 0.0
0.01613208304273041 -0.008125447528433548 0.0
0.01496356172525142 -0.04231746349124788 0.0
0.016415089119882247 -0.007754978113223824 0.0
0.009892131958422758 -0.008237711870410567 0.0
0.012914036530434091 -0.042938374626093526 0.0
0.016645336078633624 -0.016045785263077247 0.0
0.01371612330891165 -0.04325932215387874 0.0
0.01437772436446777 -0.04032406071616282 0.0
0.015649740825068488 -0.024458386906288366 0.0
0.013202206651832287 -0.043105152185366064 0.0
0.013531154030027737 -0.043349081548020314 0.0
0.02056712792268249 -0.021286983380969845 0.0
0.0059244887486823135 -0.006708353907804582 0.0
0.01704684310313843 -0.03872079306030347 0.0
0.012736237536084237 -0.04319085724700029 0.0
0.015816796912783024 -0.04128320269736753 0.0
0.013424948146603203 -0.04339677609548017 0.0
0.010206776165028235 -0.007072491823580528 0.0
0.010830030153403431 -0.025641991417937823 0.0
0.01044104535465556 -0.02127556161384285 0.0
0.011146259336237405 -0.03114118549065852 0.0
0.012009410625845485 -0.03966557864819229 0.0
0.010933905726915952 -0.027478640351709372 0.0
0.011733111739929504 -0.03745565939949599 0.0
0.014787735430638686 -0.03532087719429194 0.0
0.015526202511018418 -0.020023171359790586 0.0
0.015021965780973786 -0.03233208712278066 0.0
0.014254937297801001 -0.04042710784959326 0.0
0.013729197395515367 -0.04297617492333339 0.0
0.012955905944842248 -0.04325650230664638 0.0
0.00801879881575789 -0.03399454129152868 0.0
0.007327666962686663 -0.030725215451530903 0.0
0.009576807310012451 -0.03949747361480535 0.0
0.021329716445117275 -0.017724971180956388 0.0
0.01931023111504483 -0.033236832044182235 0.0
0.017190331971536993 -0.03898061127041623 0.0
0.019732540279600017 -0.02998022010951993 0.0
0.013989725958345967 -0.041822382857601925 0.0
0.011901553178242728 -0.042665145291810966 0.0
0.01684252646318698 -0.016671684377378395 0.0
0.015584109223397008 -0.019943801767495876 0.0
0.01050898778284399 -0.04098652330338907 0.0
0.00536062485034548 -0.012010833081940666 0.0
0.021764924499468614 -0.011608941916542739 0.0
0.005821270325383966 -0.02229493703252058 0.0
0.013462953439595624 -0.043282500172193684 0.0
0.013017878686626076 -0.04324979082427009 0.0
0.013945797942117139 -0.04258533460900071 0.0
0.01804317535480167 -0.035958478426490845 0.0
0.020414538992799082 -0.025371793371124513 0.0
0.01306701475636676 -0.04330519365052592 0.0
0.005657021414550654 -0.020048131268116665 0.0
0.021990487598262245 -0.011781169050146879 0.0
0.021864051421944235 -0.007630290801485293 0.0
0.021238574755929912 -0.017688587980358394 0.0
0.008367271419363064 -0.034761596872658486 0.0
0.008962436588913391 -0.03741390955180056 0.0
0.009984228512627803 -0.012288988151666022 0.0
0.005091814270760761 -0.01658540137829129 0.0
0.01744081708717585 -0.021911199078939462 0.0
0.008822629838155332 -0.037847919617793976 0.0
0.011577736698433476 -0.03348420505831814 0.0
0.01216273978557261 -0.03916712189302339 0.0
0.011395949475581677 -0.030113781900983558 0.0
0.0047180255469319934 -0.010993197647182236 0.0
0.020612697122574426 -0.025705655443419295 0.0
0.012347675618008733 -0.04091820284071548 0.0
0.0158878017530693 -0.03651003789610537 0.0
0.014893391737538965 -0.04106021698310815 0.0
0.01641236408812726 -0.03358121048664429 0.0
0.0174696091038848 -0.021879534038249764 0.0
0.01464991805220035 -0.042819912877218175 0.0
0.011184722613042753 -0.022860548775461148 0.0
0.01850010776116835 -0.03548025427009606 0.0
0.01937744502912617 -0.032584651392180516 0.0
0.01657165737064501 -0.04045029404061714 0.0
0.01854554088109785 -0.012420411188269724 0.0
0.011202378441718454 -0.011907615612286404 0.0
0.01164792970464329 -0.04243807389550304 0.0
0.014837522068409895 -0.04101224097944657 0.0
0.007007574228653056 -0.03208461284111024 0.0
0.00630221920580849 -0.02855745681939774 0.0
0.014457479231661307 -0.042433790893066335 0.0
0.010898626084905851 -0.01917527864973038 0.0
0.01810180136893094 -0.026959878729022856 0.0
0.015291357475782188 -0.010763308480512015 0.0
0.015477282622591616 -0.04200152542238308 0.0
0.018924938530865864 -0.006295314357792558 0.0
0.009820518116391612 -0.03991790752255285 0.0
0.005775319774953014 -0.02478480754632706 0.0
0.014118052911383598 -0.04294017329982086 0.0
0.010508063175759622 -0.0412054063126585 0.0
0.015226691195605678 -0.03938063178529773 0.0
0.02017221069080253 -0.030038252644166777 0.0
0.013302363434437449 -0.043447209588350216 0.0
0.013832139498905972 -0.007041107437608768 0.0
0.012449900628574123 -0.04262036704437675 0.0
0.013073698474718363 -0.04202731751413286 0.0
0.012458471757003542 -0.024531942682431966 0.0
0.012722812055428415 -0.03544701795835574 0.0
0.012536627548856958 -0.028462304013097243 0.0
0.012772688179456983 -0.038028821846001634 0.0
0.00498528285856756 -0.017154929831857044 0.0
0.014186239805276274 -0.006777257612382957 0.0
0.01665770198588015 -0.040270329236337804 0.0
0.013310826998436968 -0.043442662233699726 0.0
0.012947054014111285 -0.04329193764681661 0.0
0.010560768316306935 -0.009394698700989272 0.0
0.021805318435188764 -0.020067870298759796 0.0
0.01698397473568733 -0.026819101312079152 0.0
0.016954961294458996 -0.030341958910426823 0.0
0.015771705688079746 -0.037047005717866066 0.0
0.01051512442002953 -0.03383878227210074 0.0
0.010892790476922945 -0.03669346139086147 0.0
0.011961199631873023 -0.04128207382938685 0.0
0.006051573628230288 -0.028464687493439514 0.0
0.005475829238086396 -0.02453411540211504 0.0
0.011156234008156607 -0.03973461608487807 0.0
0.009577931285734191 -0.031207355072501233 0.0
0.010007107939126793 -0.03443159808653317 0.0
0.01544338908915058 -0.02656648293687838 0.0
0.014997838007009656 -0.011218277857712351 0.0
0.007903739659001784 -0.007012124444110994 0.0
0.018508955381084612 -0.00604229508721086 0.0
0.013976703906616712 -0.038002306250172785 0.0
0.014389735964805458 -0.028620138827532123 0.0
0.013713927796169756 -0.04195454103549823 0.0
0.014198941829685145 -0.035396924072877714 0.0
0.014516619175719614 -0.024352921248918434 0.0
0.02081327532899158 -0.023584874195937265 0.0
0.008039663455243637 -0.005392974073300847 0.0
0.01694324451158576 -0.03304657940243802 0.0
0.015849847964309053 -0.03884657102330002 0.0
0.01744852432639439 -0.029657108303016443 0.0
0.01256884709778738 -0.03216432041459066 0.0
0.012876903907121474 -0.038269788799440124 0.0
0.012511016212250328 -0.028598898838977885 0.0
0.014538059512399878 -0.04285863316199174 0.0
0.012888920513328588 -0.04032951000927464 0.0
0.009416586142639667 -0.030006606698930453 0.0
0.009058292974844107 -0.02621283011719324 0.0
0.015736317508248415 -0.041807185716842075 0.0
0.013689217444568438 -0.04325925479380957 0.0
0.011236553948699015 -0.018058834265827318 0.0
0.012505465612087544 -0.019945592233058855 0.0
0.012286435204500661 -0.015412604468970192 0.0
0.011771716483372306 -0.04159412586755869 0.0
0.01255673788928199 -0.024406814027023653 0.0
0.007040810667619099 -0.03215654847270428 0.0
0.007845043367913623 -0.035227814774722456 0.0
0.013378702942430733 -0.04328781267197149 0.0
0.02030230317271079 -0.028221165946929028 0.0
0.017781412537648488 -0.03788209891758807 0.0
0.010324763130141579 -0.03783433120393818 0.0
0.009815328164142802 -0.03517576839360522 0.0
0.008569444776237969 -0.020614965496521642 0.0
0.02256008143894899 -0.005543879006599667 0.0
0.004575318885015128 -0.00723188805520762 0.0
0.014165363419881808 -0.015234427294764505 0.0
0.013881161676394471 -0.04258474085200418 0.0
0.013050890294081612 -0.04187756825145069 0.0
0.012764550630092096 -0.0423511749947935 0.0
0.011803348461543543 -0.006980941588930582 0.0
0.012052765454051477 -0.042858700304474785 0.0
0.022116247193312816 -0.015276939329887317 0.0
0.01271192826239843 -0.01996699197462868 0.0
0.017670929184432062 -0.010385253406242195 0.0
0.012146196438582243 -0.04218424319593813 0.0
0.012892580878855812 -0.035370300171835886 0.0
0.013056804393567814 -0.04048654549948642 0.0
0.012836574606141436 -0.03241193964202261 0.0
0.00867612505301636 -0.018379599099108676 0.0
0.008836796926893483 -0.025670427063666564 0.0
0.008532985134914321 -0.021465581821372634 0.0
0.01106244752254273 -0.03963893797527383 0.0
0.010524371755110784 -0.037391987804429774 0.0
0.013521540744378906 -0.0428873263581191 0.0
0.010685805858111248 -0.04166957056753116 0.0
0.01855837214473771 -0.017169392846280482 0.0
0.01875042433448429 -0.02448883255238176 0.0
0.01712584711431114 -0.035426347049495696 0.0
0.012936696956507572 -0.042595261713659974 0.0
0.014953096678518988 -0.04194212481191182 0.0
0.004416391308236944 -0.02014481197951903 0.0
0.008136775166143063 -0.016742096018169925 0.0
0.008548181779569156 -0.014378834588513792 0.0
0.01555645738801001 -0.022041948392539677 0.0
0.014699531164133441 -0.036587500135161544 0.0
0.015043357791270145 -0.03378009918071117 0.0
0.014181159645640085 -0.04117517511354776 0.0
0.01642062951669632 -0.03814581811684787 0.0
0.012128846283632729 -0.03673351560352991 0.0
0.012678246660580154 -0.041299905727558935 0.0
0.011973548092459868 -0.033922032430665064 0.0
0.021994067037145272 -0.009641005012286983 0.0
0.013262857105633083 -0.043051933262380285 0.0
0.015524361695660046 -0.03389447220555506 0.0
0.015763611628318106 -0.030890971033740635 0.0
0.014751180623986535 -0.03960921164990426 0.0
0.014309030740139289 -0.039178858882717105 0.0
0.009820647225576235 -0.04027728436015183 0.0
0.013537099990375518 -0.04334829220367897 0.0
0.014646178243503411 -0.03681024033262201 0.0
0.01526234220663647 -0.026424596208419415 0.0
0.015202628008125536 -0.01776793188474638 0.0
0.017771313261671244 -0.03766953028369103 0.0
0.008281754408275888 -0.009729190692881905 0.0
0.018152605836660576 -0.009225646412136985 0.0
0.01976102568649379 -0.03187114365846005 0.0
0.007388457325834145 -0.01618712157752671 0.0
0.012297259199178154 -0.042833358863981 0.0
0.018374984315130294 -0.014072147181125375 0.0