<VTKFile type="UnstructuredGrid"  version="0.1">
<UnstructuredGrid>
<Piece NumberOfPoints="713" NumberOfCells="1304">
<Points>
<DataArray type="Float64" NumberOfComponents="3" format="ascii">
0.0 0.0 0.0
10.0 0.0 0.0
10.0 2.0 0.0
5.0 2.0 0.0
0.0 2.0 0.0
0.199999999999856 0.0 0.0
0.3999999999996677 0.0 0.0
0.5999999999994683 0.0 0.0
0.7999999999993286 0.0 0.0
0.9999999999991888 0.0 0.0
1.199999999999033 0.0 0.0
1.399999999998576 0.0 0.0
1.599999999997992 0.0 0.0
1.799999999997408 0.0 0.0
1.999999999996825 0.0 0.0
2.199999999996241 0.0 0.0
2.399999999995657 0.0 0.0
2.599999999995073 0.0 0.0
2.79999999999449 0.0 0.0
2.999999999993906 0.0 0.0
3.199999999993322 0.0 0.0
3.399999999992738 0.0 0.0
3.599999999992154 0.0 0.0
3.799999999991571 0.0 0.0
3.999999999991022 0.0 0.0
4.199999999991187 0.0 0.0
4.399999999991491 0.0 0.0
4.599999999991795 0.0 0.0
4.799999999992099 0.0 0.0
4.999999999992403 0.0 0.0
5.199999999992706 0.0 0.0
5.39999999999301 0.0 0.0
5.599999999993313 0.0 0.0
5.799999999993618 0.0 0.0
5.999999999993922 0.0 0.0
6.199999999994227 0.0 0.0
6.39999999999453 0.0 0.0
6.599999999994833 0.0 0.0
6.799999999995138 0.0 0.0
6.999999999995442 0.0 0.0
7.199999999995747 0.0 0.0
7.39999999999605 0.0 0.0
7.599999999996353 0.0 0.0
7.799999999996658 0.0 0.0
7.999999999996962 0.0 0.0
8.199999999997265 0.0 0.0
8.399999999997569 0.0 0.0
8.599999999997873 0.0 0.0
8.799999999998176 0.0 0.0
8.99999999999848 0.0 0.0
9.199999999998786 0.0 0.0
9.399999999999089 0.0 0.0
9.599999999999392 0.0 0.0
9.799999999999697 0.0 0.0
10.0 0.1999999999996293 0.0
10.0 0.3999999999991157 0.0
10.0 0.5999999999985328 0.0
10.0 0.7999999999979498 0.0
10.0 0.9999999999973885 0.0
10.0 1.199999999997894 0.0
10.0 1.39999999999842 0.0
10.0 1.599999999998947 0.0
10.0 1.799999999999474 0.0
9.799999999999999 2.0 0.0
9.6 2.0 0.0
9.399999999999999 2.0 0.0
9.2 2.0 0.0
8.999999999999998 2.0 0.0
8.799999999999999 2.0 0.0
8.599999999999998 2.0 0.0
8.399999999999999 2.0 0.0
8.2 2.0 0.0
7.999999999999998 2.0 0.0
7.799999999999999 2.0 0.0
7.599999999999999 2.0 0.0
7.399999999999999 2.0 0.0
7.199999999999999 2.0 0.0
7.0 2.0 0.0
6.799999999999999 2.0 0.0
6.6 2.0 0.0
6.399999999999999 2.0 0.0
6.199999999999999 2.0 0.0
5.999999999999999 2.0 0.0
5.8 2.0 0.0
5.6 2.0 0.0
5.399999999999999 2.0 0.0
5.199999999999999 2.0 0.0
4.8 2.0 0.0
4.6 2.0 0.0
4.399999999999999 2.0 0.0
4.199999999999998 2.0 0.0
3.999999999999999 2.0 0.0
3.799999999999999 2.0 0.0
3.599999999999999 2.0 0.0
3.399999999999999 2.0 0.0
3.199999999999998 2.0 0.0
2.999999999999999 2.0 0.0
2.799999999999999 2.0 0.0
2.599999999999999 2.0 0.0
2.399999999999999 2.0 0.0
2.199999999999999 2.0 0.0
2.0 2.0 0.0
1.799999999999999 2.0 0.0
1.599999999999999 2.0 0.0
1.399999999999999 2.0 0.0
1.199999999999999 2.0 0.0
0.9999999999999991 2.0 0.0
0.7999999999999998 2.0 0.0
0.5999999999999996 2.0 0.0
0.3999999999999995 2.0 0.0
0.1999999999999993 2.0 0.0
0.0 1.799999999999167 0.0
0.0 1.6 0.0
0.0 1.400000000001387 0.0
0.0 1.200000000002774 0.0
0.0 1.000000000004117 0.0
0.0 0.8000000000033287 0.0
0.0 0.6000000000024965 0.0
0.0 0.4000000000016644 0.0
0.0 0.200000000000832 0.0
1.499207686858938 0.9671416246672391 0.0
2.690335006295381 0.9619521672166851 0.0
3.892537609238439 1.007271393615351 0.0
8.916602958236062 0.9848120741100651 0.0
7.714518201951718 1.024234589865042 0.0
6.514518201951581 1.024234589865268 0.0
5.299999999999998 1.000000000000349 0.0
0.7620577975594133 1.201991596673393 0.0
4.61755859746166 1.240410629378135 0.0
2.099999999996533 0.6749999999988996 0.0
3.289480163184942 0.6802242156869155 0.0
8.299999999999976 1.325000000000064 0.0
7.110519836808121 1.319775784312006 0.0
5.893184537067197 1.292851873188582 0.0
3.268568008578649 1.341967835735878 0.0
2.118368267083699 1.321829331075689 0.0
5.930896443153832 0.6493414313150682 0.0
7.106926174231782 0.6329785805444448 0.0
8.306926174233002 0.6329785805444098 0.0
4.427960725065653 0.6389803625370323 0.0
0.9828791719046732 0.6520555711814596 0.0
9.383333333333349 0.6166666666667164 0.0
9.383333333333326 1.383333333333367 0.0
4.974443803660211 0.5526668589022862 0.0
1.248084267804327 1.464555585366204 0.0
4.139486343919472 1.468449088519687 0.0
5.077806736162063 1.478342020848787 0.0
1.629462398503482 0.5098631373669138 0.0
2.579462070540726 0.5133714280880515 0.0
3.770778974032556 0.5099482598296803 0.0
8.764748922637567 1.526880805960684 0.0
7.820537929455645 1.486628571911716 0.0
6.632254923791462 1.492045881343967 0.0
2.796478414430566 1.477149214423874 0.0
6.403521585563812 0.5228507855762514 0.0
7.603521585564883 0.5228507855756581 0.0
8.783559188644787 0.5066440811355862 0.0
0.5060338924245764 0.5082251307884346 0.0
5.451633334958382 0.4799315318847731 0.0
1.683269995544083 1.547372422998862 0.0
0.448590368789599 1.551409631210402 0.0
5.545526974704655 1.582008455135239 0.0
3.666056976948354 1.56999765613834 0.0
0.4385739326402744 0.9352922270094057 0.0
9.58170539854767 0.9922137522194456 0.0
4.93200119575972 0.9247090920592975 0.0
6.20679636316332 1.642443126922768 0.0
7.418963044745086 1.587405313446662 0.0
2.98103695524982 0.412594686552066 0.0
2.420975602092416 1.592770352831584 0.0
7.97902439790374 0.4072296471687943 0.0
6.779024397902082 0.4072296471687297 0.0
1.130444757308209 0.9859238872709168 0.0
0.8901814758011342 1.60566856081121 0.0
4.263670373274499 0.9915754392410991 0.0
3.096698167273431 1.009056907826855 0.0
6.088506433998166 0.9857489435828969 0.0
1.902225037409936 1.003483800311746 0.0
7.288506433998439 0.9857489435828686 0.0
8.498964973312972 1.005823551167602 0.0
2.307571737417198 1.008136792450924 0.0
8.100397971125554 1.000138280273345 0.0
6.900397971125225 1.000138280273792 0.0
3.499307350770321 0.9996496628144824 0.0
5.703656022566558 0.9885479657552226 0.0
4.719420624357892 1.622286409566126 0.0
4.099803549896894 0.3600308081356619 0.0
1.286100671532495 0.3637431910670685 0.0
9.120549139677793 1.655065205594329 0.0
9.11726214008418 0.3400668903113251 0.0
4.642568097328033 0.3514924793220939 0.0
9.630437629189052 0.3309104953729904 0.0
9.674493769554315 1.668196579944218 0.0
1.936458797611609 0.3337070483410596 0.0
3.461817573918652 0.3447876019040473 0.0
8.440152788772068 1.649667667046397 0.0
6.973083089482548 1.643748677366674 0.0
3.126874515006838 1.659115470008545 0.0
6.070607878384977 0.3410183041038941 0.0
7.255014454789089 0.32792256737713 0.0
8.462493615948901 0.3368393217476116 0.0
9.236261261261264 0.9276047786917867 0.0
5.885444386845415 1.667751020273455 0.0
0.8062340689595878 0.3261579034781319 0.0
2.29463843780282 0.308358158429197 0.0
8.10536156219338 1.691641841570632 0.0
4.041916759198581 0.7211683801597477 0.0
1.324377365289917 0.710525897087282 0.0
9.023167917315867 1.292262965009952 0.0
2.044244009166302 1.693807225416931 0.0
0.7675765545556328 0.8969765944392112 0.0
2.86965991063896 0.7069213925303978 0.0
6.330340089355722 1.293078607468788 0.0
7.530340089355831 1.29307860746885 0.0
2.509347777214458 1.27231292939881 0.0
7.890652222779963 0.7276870706009825 0.0
6.690652222780154 0.7276870706013264 0.0
4.380959112578968 1.65866292149053 0.0
0.3278422400819535 1.233362752678148 0.0
5.754468991464942 0.3469215055361071 0.0
9.69195804401614 0.7000195364707393 0.0
9.691250997975434 1.303243780084337 0.0
5.54324561063747 1.237401556904767 0.0
9.044596057577811 0.6843248705785732 0.0
5.208929198448351 0.3519433027337513 0.0
3.708880196230617 1.249762029554333 0.0
1.713349558540635 1.234899745098077 0.0
4.586522821995393 0.9261740906803194 0.0
5.241145838821565 0.7007005766013242 0.0
1.434457446926135 1.701926055218157 0.0
0.2821921707428039 0.3393165318407161 0.0
3.42846431357046 1.714274134409306 0.0
5.26283485467567 1.710141275531951 0.0
3.966530105129177 1.718376080180638 0.0
4.891301048299285 1.259923533724591 0.0
0.2787500712946937 0.6906723798523376 0.0
1.822166578929051 0.7301892210727335 0.0
8.593276160688786 1.287322908694633 0.0
2.386017956680413 0.7288816957021155 0.0
3.576911792171353 0.7225526638483954 0.0
8.013982043315597 1.271118304297217 0.0
6.82303669320588 1.277631295759485 0.0
2.891837633696712 1.215141906356511 0.0
8.708162366297856 0.7848580936429009 0.0
7.496736072543097 0.7897651325976158 0.0
6.296736072542775 0.7897651325982009 0.0
5.523181420933933 0.7588744249744506 0.0
4.725538117155759 0.6529070682798582 0.0
2.736307197014292 0.273961667653487 0.0
7.663692802980817 1.726038332346062 0.0
6.446842959287713 1.783714797320288 0.0
1.126188383272983 1.743715177525389 0.0
2.64757240694847 1.787239829472812 0.0
6.546646507559373 0.2589894635657943 0.0
7.746646507561152 0.2589894635657218 0.0
4.079302268890254 1.221431431691139 0.0
4.433746883463333 0.2983726043497702 0.0
1.032697650548726 1.318076986199429 0.0
1.309492735411376 1.208980965369829 0.0
3.896105387998365 0.2579746081881307 0.0
9.378751775005455 1.725996478164223 0.0
9.3965279828929 0.2649862374471925 0.0
1.515757555362918 0.2603060454608533 0.0
4.959097093232828 1.726144293543605 0.0
4.912501341257775 0.2529154558175828 0.0
4.342421824442713 1.285376618065631 0.0
7.023506283123107 0.293611963231815 0.0
8.215829626877609 0.2682061590942965 0.0
5.28145265730745 1.291130016052329 0.0
8.693992162747364 1.744100892812201 0.0
0.6256567126095668 1.775064851453201 0.0
0.2724967459749605 1.756941612685287 0.0
8.90781713264278 0.2741674349222226 0.0
7.184202236567151 1.709454269177068 0.0
3.212962614055919 0.2641656831057426 0.0
0.6761590188374282 0.6746441670621973 0.0
1.020489328989316 0.2487299689497893 0.0
1.485017749467193 1.402133856149482 0.0
6.734223224917944 1.790518105434539 0.0
2.657549589911705 0.7636227781082678 0.0
6.542590471647475 1.237213715285722 0.0
7.742745187066703 1.235538225115726 0.0
0.5794341726414672 0.2480285055479751 0.0
1.842901067642841 1.760146518280044 0.0
3.84389577648662 0.7524680119172447 0.0
3.061589173628368 1.407936939342627 0.0
6.144447294584154 0.5911674363009913 0.0
7.344447294585433 0.5911674362995804 0.0
8.544447294586682 0.5911674362982269 0.0
5.491507940982565 0.1734458797927824 0.0
[...]
<PointData Vectors="fields">
<DataArray type="Float64" Name="U" NumberOfComponents="3" format="ascii">
0.0 0.0 0.0
0.029074388371365407 0.0 0.0
0.002356099596897915 -0.005283593583259439 0.0
0.014483106600891405 -0.04666564423924205 0.0
0.026636301292222633 -0.005190443519476155 0.0
0.0003319969017640755 -0.005645658028681705 0.0
0.0009567297398987713 -0.009242608863416756 0.0
0.0015189149068627929 -0.012425300776714773 0.0
0.001986821593324171 -0.01521030529322968 0.0
0.0023960542322648175 -0.017866016089125303 0.0
0.002788730835201119 -0.020413599183682626 0.0
0.0031810743765794004 -0.022861755212034717 0.0
0.003610535077088187 -0.025225699190779303 0.0
0.004051890388890309 -0.027507208747611547 0.0
0.0045275419125898105 -0.029681365145939415 0.0
0.00502677390594531 -0.03174788769025412 0.0
0.005571052394525492 -0.03370962586833628 0.0
0.00612516338801015 -0.03554952700502042 0.0
0.006736415891117193 -0.03726840229531658 0.0
0.007345331159205165 -0.03885881076535282 0.0
0.00800408778742193 -0.04031481583387515 0.0
0.008665741544654494 -0.04162355598526548 0.0
0.009362135627107152 -0.042795338418350835 0.0
0.010065864951799598 -0.04379052409151586 0.0
0.010778097630430639 -0.04468370386941686 0.0
0.01151973951629665 -0.04540141452962436 0.0
0.012254431165043933 -0.04595708500869136 0.0
0.01301141412344918 -0.04636065303135672 0.0
0.013755412241277923 -0.04659393274289066 0.0
0.014529545098695511 -0.04667411274174479 0.0
0.015280585683380836 -0.046592460297517874 0.0
0.016029664576401478 -0.04634402874462627 0.0
0.01677429864028334 -0.045937639107681984 0.0
0.017508514082559466 -0.04536782971499455 0.0
0.01822157847557822 -0.04464718101705154 0.0
0.018948584096629296 -0.043783037425470545 0.0
0.01963500839264385 -0.04272524495039731 0.0
0.020321240695021593 -0.041571743707795206 0.0
0.02097288281669199 -0.040270107510833014 0.0
0.02162106534840056 -0.03880841696122751 0.0
0.022230486658987674 -0.037217276732273014 0.0
0.022816757551794575 -0.03550471905880356 0.0
0.023361311206778795 -0.033639978318968394 0.0
0.02389450411426497 -0.031702647128404995 0.0
0.0243868379647034 -0.029648249103257557 0.0
0.024861668883239315 -0.027479435166471413 0.0
0.025298575088973083 -0.025204928804628806 0.0
0.02571740603896138 -0.022850033922496675 0.0
0.026099235305858396 -0.020405754386393558 0.0
0.026488889002482186 -0.017868520446209256 0.0
0.026869477539780237 -0.015243116107032379 0.0
0.02729182502478095 -0.012472614108408846 0.0
0.027758226179300526 -0.009471846232834001 0.0
0.028484261149863854 -0.005915627654342753 0.0
0.024579131117765867 -0.0020929838035097783 0.0
0.02166492488107599 -0.003231370233179753 0.0
0.019008083892096874 -0.003955168660835925 0.0
0.016567843703782836 -0.004503450577929569 0.0
0.014198038059792067 -0.004847633649531042 0.0
0.011872126077111677 -0.005072172970410597 0.0
0.009549040265755706 -0.005208954683152644 0.0
0.0071918711981622556 -0.0052705014551002755 0.0
0.0047933812904555565 -0.005283218885073905 0.0
0.0023544127705870336 -0.007729747983593208 0.0
0.0023611652828158204 -0.010207355085366078 0.0
0.002407166699286485 -0.0127226829437099 0.0
0.0025130323736548108 -0.015264267243120758 0.0
0.002688560553012981 -0.01779616438524025 0.0
0.0029288299488160995 -0.020285122841218688 0.0
0.003235493768740168 -0.022742970973673567 0.0
0.0035961488502129955 -0.025113980129625776 0.0
0.004010371231374129 -0.027396752061052812 0.0
0.004479902503118606 -0.029588726498369113 0.0
0.0049669002712888315 -0.031665733394394824 0.0
0.005510277762293049 -0.0336331874473174 0.0
0.006055688269848435 -0.03547948402064618 0.0
0.006651144719271378 -0.03719950557450676 0.0
0.007264383545541615 -0.03879404055707356 0.0
0.007904390453323237 -0.040252208372742924 0.0
0.008556796168987968 -0.04153774928838799 0.0
0.009248049090526947 -0.04274277502978284 0.0
0.009960922730814031 -0.04376176180452505 0.0
0.01067409444203192 -0.04463588907666875 0.0
0.011421282885252322 -0.045364937782523616 0.0
0.012192951053869083 -0.045929600129666966 0.0
0.012937523635348645 -0.04633407960807116 0.0
0.013716009057994654 -0.04658216588911382 0.0
0.015267558565489375 -0.04657468789870036 0.0
0.016016742449661482 -0.04633951137479454 0.0
0.016757091846363446 -0.04594576291824432 0.0
0.017511285059921555 -0.04540210274076417 0.0
0.01825385683218284 -0.04467879584275523 0.0
0.018989329983253665 -0.043804406255365885 0.0
0.01967219241084337 -0.04278680264824741 0.0
0.02035902615173429 -0.04161761318891827 0.0
0.021021059466021227 -0.04031163452484362 0.0
0.02167316006788105 -0.03885974622973125 0.0
0.022285366822551736 -0.037238588396559 0.0
0.022892694267161152 -0.03554114176095031 0.0
0.023458201385051596 -0.03368566188489259 0.0
0.02399099090980209 -0.031710825957543244 0.0
0.02450522869954465 -0.02962223911506148 0.0
0.02496969321157398 -0.027426852257277246 0.0
0.02537557806785105 -0.025140036040398037 0.0
0.025749402127736704 -0.022754932034016438 0.0
0.02605395785129944 -0.020299866573710856 0.0
0.026300093081272225 -0.0177807521040805 0.0
0.026472709343476317 -0.015236217158419215 0.0
0.02657674964821735 -0.012676678978704482 0.0
0.026627922163387024 -0.010145204856933432 0.0
0.02664035374561847 -0.007647609533732731 0.0
0.024185530218246945 -0.005191728737350524 0.0
0.021775352941933827 -0.00517882872428849 0.0
0.01941418009162807 -0.005118175845699442 0.0
0.017079114973388227 -0.004978873636326566 0.0
0.014752834341988192 -0.0047237934335138485 0.0
0.012377784220393833 -0.004364140034418808 0.0
0.009925652446285776 -0.0037929028097695725 0.0
0.007269984423897247 -0.003007834720989801 0.0
0.0041026290050977235 -0.0016961678609665226 0.0
0.014232962122394147 -0.024199949588810384 0.0
0.014217176996713475 -0.03666058285735292 0.0
0.01453390555825464 -0.04462642189411626 0.0
0.01444900683313752 -0.019008789312900502 0.0
0.014205419019949575 -0.032825426909886 0.0
0.014318862570085616 -0.04246765631795562 0.0
0.014481299029219264 -0.046895144172265646 0.0
0.017062977101730846 -0.014780653361087708 0.0
0.014834406509612921 -0.04676901402710934 0.0
0.011450621491611378 -0.030962001901458397 0.0
0.012576715398529947 -0.04124430084595836 0.0
0.01104477689381953 -0.026486550705576817 0.0
0.012098806925475951 -0.038228793595636947 0.0
0.013500564245463451 -0.045422724593215676 0.0
0.01660773661509309 -0.04109976014107993 0.0
0.017552016179935855 -0.031125976589483934 0.0
0.01566845971647571 -0.04527157416322716 0.0
0.01712370731471663 -0.03826669361613336 0.0
0.018197268515311598 -0.026465291814900625 0.0
0.013755841616300333 -0.04638504983331705 0.0
0.010641710387683965 -0.01772557728003898 0.0
0.018730979002519178 -0.012779723798075397 0.0
0.009778572161372252 -0.012931518548512757 0.0
0.01446485725359729 -0.04699852266304559 0.0
0.019756503611016985 -0.021028310670996316 0.0
0.01599303809848225 -0.045506778737273344 0.0
0.014333960864682162 -0.04696805630679375 0.0
0.009368090693864229 -0.02573027888750752 0.0
0.01049889746698996 -0.03560490634101084 0.0
0.012326719600695701 -0.043966233841004204 0.0
0.008493638316993216 -0.020849159471289003 0.0
0.009909416213547228 -0.03167238911821489 0.0
0.011558965780585637 -0.041639587995991226 0.0
0.018138035886265988 -0.03748634700234674 0.0
0.016883214486671454 -0.04301706421908899 0.0
0.018594400926327206 -0.03385034035407419 0.0
0.019925675950080136 -0.0207280738377868 0.0
0.008819477617263155 -0.011094005970204527 0.0
0.015371732213553294 -0.04655373256599904 0.0
0.020246406729746952 -0.026262301990453738 0.0
0.02117701159038391 -0.010738864546777914 0.0
0.013284031540981133 -0.04633602186879094 0.0
0.017275116001871704 -0.04339973424765173 0.0
0.014065084376380215 -0.010342836013913692 0.0
0.014222983061798086 -0.010183090951037893 0.0
0.014476340031132597 -0.047087443238053805 0.0
0.011601894066295611 -0.04396214918207239 0.0
0.009590313442222512 -0.035512120480229815 0.0
0.010360173624930274 -0.03893946896322118 0.0
0.019669416611655503 -0.03409017080572779 0.0
0.02017820609345869 -0.030033816050555016 0.0
0.018209215387654965 -0.04063729153929257 0.0
0.014499230114294088 -0.019612469084503394 0.0
0.021622544419222612 -0.016441708715762025 0.0
0.014482684732454325 -0.04600278248145969 0.0
0.01457456171032376 -0.03992699495838959 0.0
0.014518852138566659 -0.044673052891623995 0.0
0.014578779978993008 -0.02884697175106033 0.0
0.014546846117600426 -0.0367816280512086 0.0
0.014296029867114554 -0.02420073771675965 0.0
0.014597239619230554 -0.03309624015613806 0.0
0.014398539496161798 -0.028784075741788026 0.0
0.014439849367735753 -0.039890076814513106 0.0
0.01450723296929953 -0.04260324193660462 0.0
0.014494245387431869 -0.04606730959990977 0.0
0.01514303704567786 -0.04677678912232546 0.0
0.012399070152008375 -0.04530832840820962 0.0
0.007366396599959478 -0.021599174155075847 0.0
0.006751797768152277 -0.016322225887783547 0.0
0.022211122218799072 -0.0164272155248242 0.0
0.013658887633598741 -0.04667060103806688 0.0
0.022486508103016972 -0.009061341492847111 0.0
0.006389771649147 -0.009266003025563744 0.0
0.007881106839066284 -0.0291493218830309 0.0
0.010882451268411874 -0.042231414613716656 0.0
0.007467815143419302 -0.024769681250626736 0.0
0.009949321840773769 -0.03920303548791595 0.0
0.01888098047236552 -0.03999758827108209 0.0
0.017072014256750114 -0.044587718005277416 0.0
0.019692913116980078 -0.036940015445898464 0.0
0.021569155477249014 -0.024607919249646504 0.0
0.015030445526572222 -0.014819168836617847 0.0
0.012264506143422312 -0.04530635744181313 0.0
0.006460386638596178 -0.015378952325646855 0.0
0.008231593596850858 -0.03284690069563084 0.0
0.007496355420676044 -0.028583198844945874 0.0
0.013537248886198687 -0.04522147531476393 0.0
0.011400197500989636 -0.022087169448965598 0.0
0.010957743852310497 -0.017607962119401573 0.0
0.0212544107673108 -0.03024474811249072 0.0
0.013561175826232837 -0.014835804864431743 0.0
0.012359452988401555 -0.03815301067147834 0.0
0.013042435674186835 -0.043479138953730304 0.0
0.01194453459612584 -0.03457794311257353 0.0
0.016800012576532526 -0.035000158046135633 0.0
0.016981090780663538 -0.031025727809651415 0.0
0.016089267614837467 -0.04133411122896778 0.0
0.01602129176186739 -0.046146313768528055 0.0
0.017510068166935504 -0.009061009412680928 0.0
0.016315565310063056 -0.045743450767978935 0.0
0.01766410641468573 -0.008422900021545894 0.0
0.010647723388197092 -0.008943016382207774 0.0
0.013992863280648953 -0.04645179383822512 0.0
0.017909873977013487 -0.017373775576990127 0.0
0.015015416434102848 -0.04682907627042863 0.0
0.01567246728604371 -0.04373042611695778 0.0
0.016972794181028355 -0.02668539003119258 0.0
0.014393376309780843 -0.04674163178542758 0.0
0.014761244855482646 -0.046935161427951295 0.0
0.022229417602102494 -0.02327394659947941 0.0
0.006536968318113829 -0.007470648530342408 0.0
0.018562775079767016 -0.04197738917500961 0.0
0.013775178100142484 -0.04673769837000817 0.0
0.017247292689630694 -0.04475158112422887 0.0
0.014589254583076132 -0.04702686128174148 0.0
0.011159686682241871 -0.007888228218233054 0.0
0.011819228104006659 -0.0279527786469525 0.0
0.011246747835173966 -0.023010583982430277 0.0
0.012160325895163691 -0.033844733952400056 0.0
0.013101755009870323 -0.04301866286579855 0.0
0.011792140476384974 -0.029688923286311907 0.0
0.01266135362094677 -0.040413848442852056 0.0
0.016079153980718085 -0.0383283608349757 0.0
0.016709158691970954 -0.021664142771265275 0.0
0.016195614271786594 -0.034902631696041644 0.0
0.015446540129805258 -0.04365589771672676 0.0
0.01494778392086976 -0.046494821459731765 0.0
0.014156219538589945 -0.046890038934780894 0.0
0.008807508481443033 -0.036892197912988464 0.0
0.007928618262966092 -0.03315931332243196 0.0
0.010293060291099037 -0.04261608929048996 0.0
0.023055515993416896 -0.019440908683493196 0.0
0.020915197983966682 -0.036078652031216324 0.0
0.01861895185850908 -0.04207087751587803 0.0
0.021249232522089677 -0.03236694442755148 0.0
0.015249060379472316 -0.045359861804736584 0.0
0.013039652490593995 -0.046246998720297604 0.0
0.018256885406607862 -0.01831298284095536 0.0
0.016906111436399363 -0.021839070162844285 0.0
0.011501796552209466 -0.044433255835540836 0.0
0.005770340567684361 -0.013008287858206031 0.0
0.02342176312561763 -0.012585703747347238 0.0
0.006448728641798207 -0.024353704621823853 0.0
0.014594489445315396 -0.04686899040044545 0.0
0.014276255707448874 -0.04684469454387909 0.0
0.015190770442731 -0.04618254065583246 0.0
0.019484721305390643 -0.03879913020289246 0.0
0.02196773948209135 -0.02741404387532087 0.0
0.01416939148180095 -0.046881420033879656 0.0
0.006102043423546108 -0.02167466158264489 0.0
0.02378391226675413 -0.013023083024641311 0.0
0.023654323568164815 -0.008539481414367415 0.0
0.022852634716348387 -0.01914060838420972 0.0
0.009026836998789943 -0.03749360726231959 0.0
0.009820512060479715 -0.04056983920789105 0.0
0.010919714457332688 -0.013568406264207723 0.0
0.005649888111630914 -0.01821204792899228 0.0
0.018886748566645975 -0.023950620288023482 0.0
0.009488878634968785 -0.04082190983400829 0.0
0.01262630923082267 -0.03635798853961121 0.0
0.013133321234447277 -0.04227401065815256 0.0
0.012293202744126569 -0.03251820060451227 0.0
0.005228822493266195 -0.012154500791364424 0.0
0.022277028298252583 -0.0280111611537212 0.0
0.013471392274193705 -0.04437942537323902 0.0
0.017274470200667393 -0.039602822564872374 0.0
0.016168327190503817 -0.044350440858979163 0.0
0.01770075449000981 -0.036243986415234006 0.0
0.018799223452892408 -0.023663214648458386 0.0
0.01602698122834048 -0.046310812587234726 0.0
0.012199330340450253 -0.024971666584441176 0.0
0.02007439158134379 -0.03848636125813208 0.0
0.020885278799440007 -0.03516487312529475 0.0
0.01799231570577715 -0.04367504753471549 0.0
0.02008883569786374 -0.013716270355296803 0.0
0.012055288182182636 -0.01290293406087278 0.0
0.012559162612188073 -0.04586931551643769 0.0
0.016177127436996983 -0.04447399546927282 0.0
0.007723169377456903 -0.034839912512211725 0.0
0.006828502561564852 -0.030830512119126723 0.0
0.015747609296380607 -0.0458763184951549 0.0
0.011734117713628396 -0.02074581994389256 0.0
0.019594247635788913 -0.029361849463279348 0.0
0.016609992919500705 -0.011918014458991766 0.0
0.01686603136416236 -0.04552246412124511 0.0
0.020498606915203554 -0.007095166611871663 0.0
0.010750714015683168 -0.043274199062119476 0.0
0.006401978705815889 -0.027021489696263265 0.0
0.015360503161081732 -0.04654880983005126 0.0
0.011301002079059692 -0.044491026418840396 0.0
0.016591586361580302 -0.04270232522544767 0.0
0.021816239599039212 -0.03265119420516799 0.0
0.01446367352642362 -0.047065128335603945 0.0
0.015046554353264097 -0.007875217394537367 0.0
0.013462315785093729 -0.04608625069628903 0.0
0.01416339483981177 -0.04542337049697267 0.0
0.01342043843944491 -0.026522322000496458 0.0
0.013731358017149782 -0.03824879389964166 0.0
0.013646967922919502 -0.030976042857436853 0.0
0.013920550146704305 -0.04124752662040242 0.0
0.00537168332024128 -0.01855418637204148 0.0
0.015269791233531626 -0.007368062568397079 0.0
0.01816163347564334 -0.043650314108091816 0.0
0.014519856594484529 -0.047065071402983306 0.0
0.014022257842684148 -0.04686312065845757 0.0
0.011542228660157087 -0.010419354487236875 0.0
0.02346157861114158 -0.021702299708295618 0.0
0.018283748915530088 -0.028979487627667246 0.0
0.018376421089803734 -0.032986804880752625 0.0
0.017044198844793263 -0.039979592773661324 0.0
0.011347652230555973 -0.03651183605893737 0.0
0.011894893852494107 -0.03980528999931022 0.0
0.012914411525615791 -0.04459154775318548 0.0
0.0066993515910144024 -0.030961195386335072 0.0
0.0059264738717189226 -0.02650513055350662 0.0
0.012026305196900029 -0.042887756543834 0.0
0.010342943285871129 -0.03368567960527483 0.0
0.010941507731294913 -0.03737092859025465 0.0
0.01675341056313588 -0.0289446935935146 0.0
0.016136584705410413 -0.012162357359139283 0.0
0.008508767705383592 -0.007621272345218119 0.0
0.01991954288895088 -0.006572339093801077 0.0
0.015221813924857129 -0.04121671347410489 0.0
0.01562953057505322 -0.03114538246885116 0.0
0.014882923237945624 -0.045342044588333574 0.0
0.015327030738440538 -0.03819801355894408 0.0
0.015629572735969932 -0.02633003322836671 0.0
0.022490479108373457 -0.025738459504361152 0.0
0.008821982807591418 -0.006040998497996309 0.0
0.018376920441321373 -0.035883976525819594 0.0
0.01715772165985241 -0.04192981986455735 0.0
0.01879166580020401 -0.032027240730322086 0.0
0.013686658133216184 -0.03494341431362517 0.0
0.013911014383476278 -0.041300555337483016 0.0
0.0134861106608441 -0.03089436654074313 0.0
0.015807761057399432 -0.04643595754359172 0.0
0.01405304721956624 -0.043740756247966625 0.0
0.010305861843412483 -0.032625086418331256 0.0
0.00977754441220778 -0.028324400776692633 0.0
0.017144112895557343 -0.04517113702651024 0.0
0.0148801991460065 -0.046888292123147296 0.0
0.012258157336378877 -0.019810439899416082 0.0
0.013614985509022948 -0.021841960471888053 0.0
0.013221780541424446 -0.01668696376783709 0.0
0.012861230346442484 -0.04510679842946477 0.0
0.013667262954494488 -0.026630872772892486 0.0
0.007616372018093439 -0.03469207063863254 0.0
0.008620338288843073 -0.03821351900567947 0.0
0.014567251538838803 -0.04693027038463191 0.0
0.021854167992925225 -0.0304758679754882 0.0
0.019234927946925245 -0.040877292738843024 0.0
0.011285496569287564 -0.04103247437896622 0.0
0.010588247940394464 -0.03794599652706451 0.0
0.009396884467929613 -0.02255746255790716 0.0
0.02428325793116073 -0.0060301444427117296 0.0
0.004924981788990429 -0.007857738196524917 0.0
0.015398366167716409 -0.01676219791579831 0.0
0.015097373048789378 -0.04604813214519352 0.0
0.01423255572282707 -0.04542397813625887 0.0
0.01392910108061857 -0.04593535220974211 0.0
0.01270584655182777 -0.007587982973844576 0.0
0.013007038700735248 -0.046344725019322804 0.0
0.023907815546294644 -0.016799534264824084 0.0
0.01368422777707256 -0.021602449556519757 0.0
0.019156047585011743 -0.011512540617914825 0.0
0.013271446396692994 -0.045748002842865204 0.0
0.014042009935221141 -0.038384048836417446 0.0
0.014125771769032541 -0.04371974831854348 0.0
0.01384516676038578 -0.03498659115450848 0.0
0.009510584654169863 -0.020153791433739566 0.0
0.009684206961649549 -0.027979807095499094 0.0
0.009197671414784957 -0.023211281861786573 0.0
0.01208263831801386 -0.04298567568619927 0.0
0.011345401617806148 -0.04033927351674638 0.0
0.014729577999346218 -0.04651149706658426 0.0
0.01170814322999714 -0.04516532658862201 0.0
0.020089682015827153 -0.0188481384128542 0.0
0.020178040064847986 -0.026469401009897787 0.0
0.018487933664192283 -0.038228672055429076 0.0
0.01401571239459772 -0.046060919792240675 0.0
0.01627521087857382 -0.04532519622798317 0.0
0.004934206855751826 -0.02204021082907738 0.0
0.008761116397410304 -0.018115324954330814 0.0
0.009201191540788033 -0.015566180745808721 0.0
0.01674357388990074 -0.02384053509067877 0.0
0.015993094262673275 -0.03968979856147627 0.0
0.01622698260148895 -0.03645858383136377 0.0
0.015382771559943607 -0.044477936350404014 0.0
0.01787380818475384 -0.04136147974021854 0.0
0.01322397845588854 -0.03985058002774975 0.0
0.013712838860742978 -0.04461459119269348 0.0
0.012919267888670819 -0.0366060740003833 0.0
0.02379216807562259 -0.010710446182802653 0.0
0.014400563573052002 -0.04658277321610248 0.0
0.016861131680202635 -0.03679635561403559 0.0
0.0169860049715329 -0.03335487103669535 0.0
0.015974742058731218 -0.04276115759747532 0.0
0.015590235468598598 -0.042488173331789045 0.0
0.010552118149947828 -0.043467361131167837 0.0
0.014799710842806582 -0.0469382640585602 0.0
0.015822375596254105 -0.03972345711779972 0.0
0.016434000154700146 -0.028558203065656162 0.0
0.016359383251028873 -0.019231562269123016 0.0
0.01932816935447478 -0.040841043407369174 0.0
0.008913953347048174 -0.010550442407623385 0.0
0.019531527867926834 -0.010012860006399593 0.0
0.02138645847005298 -0.03461460244067949 0.0
0.008124201902842456 -0.017787155896564388 0.0
0.013458764325218548 -0.0464363708029305 0.0
0.019769982525805512 -0.015244536024608986 0.0
0.01932874789742191 -0.015837094227095935 0.0