<VTKFile type="UnstructuredGrid"  version="0.1">
<UnstructuredGrid>
<Piece NumberOfPoints="713" NumberOfCells="1304">
<Points>
<DataArray type="Float64" NumberOfComponents="3" format="ascii">
0.0 0.0 0.0
10.0 0.0 0.0
10.0 2.0 0.0
5.0 2.0 0.0
0.0 2.0 0.0
0.199999999999856 0.0 0.0
0.3999999999996677 0.0 0.0
0.5999999999994683 0.0 0.0
0.7999999999993286 0.0 0.0
0.9999999999991888 0.0 0.0
1.199999999999033 0.0 0.0
1.399999999998576 0.0 0.0
1.599999999997992 0.0 0.0
1.799999999997408 0.0 0.0
1.999999999996825 0.0 0.0
2.199999999996241 0.0 0.0
2.399999999995657 0.0 0.0
2.599999999995073 0.0 0.0
2.79999999999449 0.0 0.0
2.999999999993906 0.0 0.0
3.199999999993322 0.0 0.0
3.399999999992738 0.0 0.0
3.599999999992154 0.0 0.0
3.799999999991571 0.0 0.0
3.999999999991022 0.0 0.0
4.199999999991187 0.0 0.0
4.399999999991491 0.0 0.0
4.599999999991795 0.0 0.0
4.799999999992099 0.0 0.0
4.999999999992403 0.0 0.0
5.199999999992706 0.0 0.0
5.39999999999301 0.0 0.0
5.599999999993313 0.0 0.0
5.799999999993618 0.0 0.0
5.999999999993922 0.0 0.0
6.199999999994227 0.0 0.0
6.39999999999453 0.0 0.0
6.599999999994833 0.0 0.0
6.799999999995138 0.0 0.0
6.999999999995442 0.0 0.0
7.199999999995747 0.0 0.0
7.39999999999605 0.0 0.0
7.599999999996353 0.0 0.0
7.799999999996658 0.0 0.0
7.999999999996962 0.0 0.0
8.199999999997265 0.0 0.0
8.399999999997569 0.0 0.0
8.599999999997873 0.0 0.0
8.799999999998176 0.0 0.0
8.99999999999848 0.0 0.0
9.199999999998786 0.0 0.0
9.399999999999089 0.0 0.0
9.599999999999392 0.0 0.0
9.799999999999697 0.0 0.0
10.0 0.1999999999996293 0.0
10.0 0.3999999999991157 0.0
10.0 0.5999999999985328 0.0
10.0 0.7999999999979498 0.0
10.0 0.9999999999973885 0.0
10.0 1.199999999997894 0.0
10.0 1.39999999999842 0.0
10.0 1.599999999998947 0.0
10.0 1.799999999999474 0.0
9.799999999999999 2.0 0.0
9.6 2.0 0.0
9.399999999999999 2.0 0.0
9.2 2.0 0.0
8.999999999999998 2.0 0.0
8.799999999999999 2.0 0.0
8.599999999999998 2.0 0.0
8.399999999999999 2.0 0.0
8.2 2.0 0.0
7.999999999999998 2.0 0.0
7.799999999999999 2.0 0.0
7.599999999999999 2.0 0.0
7.399999999999999 2.0 0.0
7.199999999999999 2.0 0.0
7.0 2.0 0.0
6.799999999999999 2.0 0.0
6.6 2.0 0.0
6.399999999999999 2.0 0.0
6.199999999999999 2.0 0.0
5.999999999999999 2.0 0.0
5.8 2.0 0.0
5.6 2.0 0.0
5.399999999999999 2.0 0.0
5.199999999999999 2.0 0.0
4.8 2.0 0.0
4.6 2.0 0.0
4.399999999999999 2.0 0.0
4.199999999999998 2.0 0.0
3.999999999999999 2.0 0.0
3.799999999999999 2.0 0.0
3.599999999999999 2.0 0.0
3.399999999999999 2.0 0.0
3.199999999999998 2.0 0.0
2.999999999999999 2.0 0.0
2.799999999999999 2.0 0.0
2.599999999999999 2.0 0.0
2.399999999999999 2.0 0.0
2.199999999999999 2.0 0.0
2.0 2.0 0.0
1.799999999999999 2.0 0.0
1.599999999999999 2.0 0.0
1.399999999999999 2.0 0.0
1.199999999999999 2.0 0.0
0.9999999999999991 2.0 0.0
0.7999999999999998 2.0 0.0
0.5999999999999996 2.0 0.0
0.3999999999999995 2.0 0.0
0.1999999999999993 2.0 0.0
0.0 1.799999999999167 0.0
0.0 1.6 0.0
0.0 1.400000000001387 0.0
0.0 1.200000000002774 0.0
0.0 1.000000000004117 0.0
0.0 0.8000000000033287 0.0
0.0 0.6000000000024965 0.0
0.0 0.4000000000016644 0.0
0.0 0.200000000000832 0.0
1.499207686858938 0.9671416246672391 0.0
2.690335006295381 0.9619521672166851 0.0
3.892537609238439 1.007271393615351 0.0
8.916602958236062 0.9848120741100651 0.0
7.714518201951718 1.024234589865042 0.0
6.514518201951581 1.024234589865268 0.0
5.299999999999998 1.000000000000349 0.0
0.7620577975594133 1.201991596673393 0.0
4.61755859746166 1.240410629378135 0.0
2.099999999996533 0.6749999999988996 0.0
3.289480163184942 0.6802242156869155 0.0
8.299999999999976 1.325000000000064 0.0
7.110519836808121 1.319775784312006 0.0
5.893184537067197 1.292851873188582 0.0
3.268568008578649 1.341967835735878 0.0
2.118368267083699 1.321829331075689 0.0
5.930896443153832 0.6493414313150682 0.0
7.106926174231782 0.6329785805444448 0.0
8.306926174233002 0.6329785805444098 0.0
4.427960725065653 0.6389803625370323 0.0
0.9828791719046732 0.6520555711814596 0.0
9.383333333333349 0.6166666666667164 0.0
9.383333333333326 1.383333333333367 0.0
4.974443803660211 0.5526668589022862 0.0
1.248084267804327 1.464555585366204 0.0
4.139486343919472 1.468449088519687 0.0
5.077806736162063 1.478342020848787 0.0
1.629462398503482 0.5098631373669138 0.0
2.579462070540726 0.5133714280880515 0.0
3.770778974032556 0.5099482598296803 0.0
8.764748922637567 1.526880805960684 0.0
7.820537929455645 1.486628571911716 0.0
6.632254923791462 1.492045881343967 0.0
2.796478414430566 1.477149214423874 0.0
6.403521585563812 0.5228507855762514 0.0
7.603521585564883 0.5228507855756581 0.0
8.783559188644787 0.5066440811355862 0.0
0.5060338924245764 0.5082251307884346 0.0
5.451633334958382 0.4799315318847731 0.0
1.683269995544083 1.547372422998862 0.0
0.448590368789599 1.551409631210402 0.0
5.545526974704655 1.582008455135239 0.0
3.666056976948354 1.56999765613834 0.0
0.4385739326402744 0.9352922270094057 0.0
9.58170539854767 0.9922137522194456 0.0
4.93200119575972 0.9247090920592975 0.0
6.20679636316332 1.642443126922768 0.0
7.418963044745086 1.587405313446662 0.0
2.98103695524982 0.412594686552066 0.0
2.420975602092416 1.592770352831584 0.0
7.97902439790374 0.4072296471687943 0.0
6.779024397902082 0.4072296471687297 0.0
1.130444757308209 0.9859238872709168 0.0
0.8901814758011342 1.60566856081121 0.0
4.263670373274499 0.9915754392410991 0.0
3.096698167273431 1.009056907826855 0.0
6.088506433998166 0.9857489435828969 0.0
1.902225037409936 1.003483800311746 0.0
7.288506433998439 0.9857489435828686 0.0
8.498964973312972 1.005823551167602 0.0
2.307571737417198 1.008136792450924 0.0
8.100397971125554 1.000138280273345 0.0
6.900397971125225 1.000138280273792 0.0
3.499307350770321 0.9996496628144824 0.0
5.703656022566558 0.9885479657552226 0.0
4.719420624357892 1.622286409566126 0.0
4.099803549896894 0.3600308081356619 0.0
1.286100671532495 0.3637431910670685 0.0
9.120549139677793 1.655065205594329 0.0
9.11726214008418 0.3400668903113251 0.0
4.642568097328033 0.3514924793220939 0.0
9.630437629189052 0.3309104953729904 0.0
9.674493769554315 1.668196579944218 0.0
1.936458797611609 0.3337070483410596 0.0
3.461817573918652 0.3447876019040473 0.0
8.440152788772068 1.649667667046397 0.0
6.973083089482548 1.643748677366674 0.0
3.126874515006838 1.659115470008545 0.0
6.070607878384977 0.3410183041038941 0.0
7.255014454789089 0.32792256737713 0.0
8.462493615948901 0.3368393217476116 0.0
9.236261261261264 0.9276047786917867 0.0
5.885444386845415 1.667751020273455 0.0
0.8062340689595878 0.3261579034781319 0.0
2.29463843780282 0.308358158429197 0.0
8.10536156219338 1.691641841570632 0.0
4.041916759198581 0.7211683801597477 0.0
1.324377365289917 0.710525897087282 0.0
9.023167917315867 1.292262965009952 0.0
2.044244009166302 1.693807225416931 0.0
0.7675765545556328 0.8969765944392112 0.0
2.86965991063896 0.7069213925303978 0.0
6.330340089355722 1.293078607468788 0.0
7.530340089355831 1.29307860746885 0.0
2.509347777214458 1.27231292939881 0.0
7.890652222779963 0.7276870706009825 0.0
6.690652222780154 0.7276870706013264 0.0
4.380959112578968 1.65866292149053 0.0
0.3278422400819535 1.233362752678148 0.0
5.754468991464942 0.3469215055361071 0.0
9.69195804401614 0.7000195364707393 0.0
9.691250997975434 1.303243780084337 0.0
5.54324561063747 1.237401556904767 0.0
9.044596057577811 0.6843248705785732 0.0
5.208929198448351 0.3519433027337513 0.0
3.708880196230617 1.249762029554333 0.0
1.713349558540635 1.234899745098077 0.0
4.586522821995393 0.9261740906803194 0.0
5.241145838821565 0.7007005766013242 0.0
1.434457446926135 1.701926055218157 0.0
0.2821921707428039 0.3393165318407161 0.0
3.42846431357046 1.714274134409306 0.0
5.26283485467567 1.710141275531951 0.0
3.966530105129177 1.718376080180638 0.0
4.891301048299285 1.259923533724591 0.0
0.2787500712946937 0.6906723798523376 0.0
1.822166578929051 0.7301892210727335 0.0
8.593276160688786 1.287322908694633 0.0
2.386017956680413 0.7288816957021155 0.0
3.576911792171353 0.7225526638483954 0.0
8.013982043315597 1.271118304297217 0.0
6.82303669320588 1.277631295759485 0.0
2.891837633696712 1.215141906356511 0.0
8.708162366297856 0.7848580936429009 0.0
7.496736072543097 0.7897651325976158 0.0
6.296736072542775 0.7897651325982009 0.0
5.523181420933933 0.7588744249744506 0.0
4.725538117155759 0.6529070682798582 0.0
2.736307197014292 0.273961667653487 0.0
7.663692802980817 1.726038332346062 0.0
6.446842959287713 1.783714797320288 0.0
1.126188383272983 1.743715177525389 0.0
2.64757240694847 1.787239829472812 0.0
6.546646507559373 0.2589894635657943 0.0
7.746646507561152 0.2589894635657218 0.0
4.079302268890254 1.221431431691139 0.0
4.433746883463333 0.2983726043497702 0.0
1.032697650548726 1.318076986199429 0.0
1.309492735411376 1.208980965369829 0.0
3.896105387998365 0.2579746081881307 0.0
9.378751775005455 1.725996478164223 0.0
9.3965279828929 0.2649862374471925 0.0
1.515757555362918 0.2603060454608533 0.0
4.959097093232828 1.726144293543605 0.0
4.912501341257775 0.2529154558175828 0.0
4.342421824442713 1.285376618065631 0.0
7.023506283123107 0.293611963231815 0.0
8.215829626877609 0.2682061590942965 0.0
5.28145265730745 1.291130016052329 0.0
8.693992162747364 1.744100892812201 0.0
0.6256567126095668 1.775064851453201 0.0
0.2724967459749605 1.756941612685287 0.0
8.90781713264278 0.2741674349222226 0.0
7.184202236567151 1.709454269177068 0.0
3.212962614055919 0.2641656831057426 0.0
0.6761590188374282 0.6746441670621973 0.0
1.020489328989316 0.2487299689497893 0.0
1.485017749467193 1.402133856149482 0.0
6.734223224917944 1.790518105434539 0.0
2.657549589911705 0.7636227781082678 0.0
6.542590471647475 1.237213715285722 0.0
7.742745187066703 1.235538225115726 0.0
0.5794341726414672 0.2480285055479751 0.0
1.842901067642841 1.760146518280044 0.0
3.84389577648662 0.7524680119172447 0.0
3.061589173628368 1.407936939342627 0.0
6.144447294584154 0.5911674363009913 0.0
7.344447294585433 0.5911674362995804 0.0
8.544447294586682 0.5911674362982269 0.0
5.491507940982565 0.1734458797927824 0.0
[...]
<PointData Vectors="fields">
<DataArray type="Float64" Name="U" NumberOfComponents="3" format="ascii">
0.0 0.0 0.0
0.03219362923172641 0.0 0.0
0.002565906900795667 -0.005873610741924767 0.0
0.016033879930357722 -0.051303982736440615 0.0
0.029162741787286693 -0.005442488840677164 0.0
0.00033006993474410514 -0.006041237287658971 0.0
0.0009826062272900794 -0.009938809310957785 0.0
0.0015699414634760926 -0.01339122662455325 0.0
0.002062193680583083 -0.016431932473217538 0.0
0.002493891831064903 -0.019336236252259362 0.0
0.0029110752492287747 -0.022128550361965618 0.0
0.0033313826373214087 -0.02481820145633953 0.0
0.0037938359685162418 -0.027419096250663556 0.0
0.004272520587684504 -0.029932380135747418 0.0
0.004790970632727873 -0.032331132995166656 0.0
0.005336942526494827 -0.0346140489983564 0.0
0.005933576427141709 -0.03678282181701727 0.0
0.006542396516553569 -0.03881908647400656 0.0
0.007213964237059211 -0.04072270873978495 0.0
0.007883908198423717 -0.042485683259167156 0.0
0.00860759801611195 -0.0441006236337 0.0
0.009332868832314824 -0.045554218802887514 0.0
0.010093915326567006 -0.04685756565519568 0.0
0.010858970007857821 -0.04796906851641059 0.0
0.011630653890815416 -0.04896817057914972 0.0
0.012432233213784612 -0.049777857497277984 0.0
0.013224902167128313 -0.05041281801147399 0.0
0.014042083777139981 -0.05088400483618771 0.0
0.014848283971406983 -0.0511728223636218 0.0
0.015690830574913158 -0.051296031474920366 0.0
0.016514295876351434 -0.05124430822190253 0.0
0.01734227555085395 -0.05101269347345051 0.0
0.018171595921904867 -0.05060852616229108 0.0
0.01899558812145729 -0.05002499552315885 0.0
0.019802390836004508 -0.049274639370679274 0.0
0.02063055268655872 -0.048363294409461674 0.0
0.021419073042927308 -0.04723582375628583 0.0
0.022211791573180654 -0.045996911079400536 0.0
0.022970529078113762 -0.04458975314069789 0.0
0.02372813278924656 -0.04299857801076273 0.0
0.024442236593148037 -0.04125793030246376 0.0
0.025129363044778325 -0.039375991163289915 0.0
0.0257652675290016 -0.03731970654384798 0.0
0.026386048990395792 -0.03517838022572983 0.0
0.026957294626197167 -0.03290304011011683 0.0
0.02750458738635082 -0.030498012226701437 0.0
0.028005392593155702 -0.027974287390257986 0.0
0.02848198663529212 -0.025360172074587687 0.0
0.028914377582983253 -0.022646824641558226 0.0
0.029352653765603524 -0.019830369055553833 0.0
0.029779486069048195 -0.016914722171751186 0.0
0.030251372498771516 -0.01383812659518818 0.0
0.030772749529903217 -0.01050484430403215 0.0
0.03157800775295541 -0.006547788571433096 0.0
0.027208628900646334 -0.002309304924222261 0.0
0.02396670796012897 -0.003578348728717518 0.0
0.021020667471903683 -0.0043865575301102605 0.0
0.018314356553215876 -0.004998805965428392 0.0
0.015689293793646867 -0.005384940719717842 0.0
0.013112713051641843 -0.005637414688111497 0.0
0.010539053507382436 -0.005790497632230651 0.0
0.007927073217083094 -0.005859223771959139 0.0
0.005268210062968246 -0.005873404291897528 0.0
0.002563919446914703 -0.008585922623184354 0.0
0.002571483543087486 -0.011333577050394412 0.0
0.002622578505237715 -0.014124066533659219 0.0
0.002740219970260891 -0.016944083532010098 0.0
0.0029351226622628744 -0.01975403705416778 0.0
0.0032006680710993914 -0.02251735641750268 0.0
0.0035406070743401316 -0.025245285211413476 0.0
0.003940618081983008 -0.027877605706092476 0.0
0.0044021516141703266 -0.030412253369290095 0.0
0.0049298432711134205 -0.032844669892864484 0.0
0.005482799205858202 -0.03514765069259796 0.0
0.006104796519478293 -0.03732536626881775 0.0
0.0067331564988863234 -0.039363820956853826 0.0
0.007419705276554034 -0.04125561167822849 0.0
0.008124452819371382 -0.04300178041218693 0.0
0.00885531737634966 -0.044589616307509315 0.0
0.009590226071048421 -0.04597965240158505 0.0
0.010363832919051916 -0.04727557893382082 0.0
0.011152207707446609 -0.048360672236969805 0.0
0.011932802630428459 -0.04928252398146491 0.0
0.012744704422490621 -0.05004207954055854 0.0
0.013578314384832159 -0.0506189463289845 0.0
0.014379235306337024 -0.05102086032057362 0.0
0.015213998602073396 -0.05125150741317156 0.0
0.016869988629104125 -0.05116793531581524 0.0
0.017667123315987666 -0.050875742126907215 0.0
0.0184557551869173 -0.05041381780933272 0.0
0.019261746480926364 -0.04979020871351472 0.0
0.02006011078077965 -0.04897347511978189 0.0
0.02085595491554474 -0.04799247541298673 0.0
0.021601534148439443 -0.0468560169625164 0.0
0.022357848457415522 -0.04555442432270012 0.0
0.02309082214598452 -0.04410239108572888 0.0
0.023814341149809917 -0.04249021254899507 0.0
0.02448957811287172 -0.04069391905986402 0.0
0.02515625464783159 -0.03881263065739649 0.0
0.025771868009556338 -0.03675971082059151 0.0
0.026347332367645956 -0.034577467281945024 0.0
0.026900426391545003 -0.03227199023987546 0.0
0.02739928947056095 -0.029850543243442756 0.0
0.0278347584665765 -0.027330566271447712 0.0
0.0282339468443891 -0.024706589478711443 0.0
0.028557092004592284 -0.022008623491708613 0.0
0.02881537929054975 -0.019244947676855025 0.0
0.028994642380926423 -0.016455764957421577 0.0
0.02910172440340164 -0.013652875442961024 0.0
0.029154255269864114 -0.01087909101239356 0.0
0.02916679234330404 -0.00814018381987616 0.0
0.026471607161719268 -0.0054438119397851766 0.0
0.023821745332691914 -0.005430484155472695 0.0
0.021221550969646938 -0.005368507387597955 0.0
0.018648855885261724 -0.005225857163109302 0.0
0.016084859389553927 -0.004962707725406608 0.0
0.013472165121878973 -0.004589359536319962 0.0
0.010778892146709348 -0.003992940928711858 0.0
0.007874088065473014 -0.003168549850404 0.0
0.0044353857250292 -0.0017906928232426364 0.0
0.015513671948132727 -0.026256186117120626 0.0
0.015515090768011964 -0.03999810993248598 0.0
0.015877498784696933 -0.0488326015622763 0.0
0.01598395462052207 -0.021073130689856785 0.0
0.015690189989091646 -0.03639487849446543 0.0
0.015764944961786296 -0.04693500926473602 0.0
0.015866901352945252 -0.05153955272457929 0.0
0.01862157982561545 -0.015941980028923088 0.0
0.01626554546216123 -0.05127338046042626 0.0
0.012443268850899724 -0.03370584139085918 0.0
0.0136906875745674 -0.045079314097264254 0.0
0.012205250025297758 -0.029370737834414365 0.0
0.013381209851166217 -0.04234894284108732 0.0
0.014890325735332225 -0.050062777270472925 0.0
0.018180905591261926 -0.044925436990188555 0.0
0.019207806654678177 -0.033888003284596416 0.0
0.017126598945029048 -0.04990391072827411 0.0
0.018841358441574207 -0.04238430446688804 0.0
0.020124338004219557 -0.029347444445266754 0.0
0.014971377649054558 -0.05082516026746034 0.0
0.011540876124667214 -0.019156798291468463 0.0
0.020739797203805758 -0.014164826466506582 0.0
0.010802340158687439 -0.014345682142957823 0.0
0.015731316328518503 -0.05159527889220229 0.0
0.021617268429217098 -0.02278420214462805 0.0
0.01753463814370182 -0.049840782078613075 0.0
0.015789907787273124 -0.05159164015115279 0.0
0.010139959803655956 -0.027945426989783854 0.0
0.011388492272439208 -0.038841363596353796 0.0
0.013396912626190277 -0.048110330006531365 0.0
0.009378102022743435 -0.02312390915206767 0.0
0.010953788989803414 -0.03512757635806237 0.0
0.01281709667853104 -0.046058127920419065 0.0
0.01987948322732801 -0.040925738857883656 0.0
0.018481266106863257 -0.04752612638228437 0.0
0.02050954158425458 -0.03753065073616801 0.0
0.022059274126340088 -0.022983740474991732 0.0
0.009535970275314934 -0.011928333799014756 0.0
0.016726875732611647 -0.05121206788009256 0.0
0.02217647287020281 -0.02853863195993365 0.0
0.023160818237087055 -0.011527402150285145 0.0
0.014690994665436866 -0.051005287364340374 0.0
0.01893344748266703 -0.047493548688521375 0.0
0.01530688298238956 -0.011106828730805436 0.0
0.015731419856823952 -0.011293800742650788 0.0
0.015826276994367797 -0.051672551710002096 0.0
0.012888896111032364 -0.04854576686188661 0.0
0.01062284514847309 -0.03937638099409665 0.0
0.011229870198301907 -0.042538026153263055 0.0
0.021571140110239043 -0.03717248742320307 0.0
0.02229480826924263 -0.033311355281776714 0.0
0.01997081965777954 -0.044969511709813004 0.0
0.015798505891022437 -0.021222331491624162 0.0
0.02366438264572726 -0.017764332339136022 0.0
0.015826097140087488 -0.050377903476058805 0.0
0.01591576014899327 -0.04361595599402295 0.0
0.015951743461047097 -0.049275632357452186 0.0
0.015905287497087577 -0.03137069100447331 0.0
0.01604887208639339 -0.04075639594889716 0.0
0.01580886818289982 -0.026830904304035792 0.0
0.01593287990040545 -0.03605747989272633 0.0
0.015913885358620906 -0.03191651736371788 0.0
0.015914204334827764 -0.044153136648248895 0.0
0.015843449495185114 -0.0465831769070173 0.0
0.015901552479451592 -0.05072175877697484 0.0
0.016668613184117033 -0.05132642594040919 0.0
0.013448737821775247 -0.04962364894856076 0.0
0.007936487535198619 -0.02340802803527649 0.0
0.007445222109231746 -0.01810908399215864 0.0
0.024604271097886547 -0.0182142050824407 0.0
0.014808767922135315 -0.051190033603223634 0.0
0.024913948993989337 -0.01003671011249031 0.0
0.007040129893074812 -0.010287623261166511 0.0
0.00849592395148781 -0.03171972693533116 0.0
0.011797421603774179 -0.04619252363028498 0.0
0.008238735735843869 -0.02747634028858824 0.0
0.011053098208574069 -0.04342568178593584 0.0
0.020710247985318897 -0.04372174533959508 0.0
0.018615371377533097 -0.049196688123407724 0.0
0.02166993108589825 -0.040938404726614766 0.0
0.023870782428639135 -0.027295110905346816 0.0
0.016630799390666442 -0.016428760509994342 0.0
0.013608966973181084 -0.04995736648389274 0.0
0.006951133777820613 -0.016596500931781978 0.0
0.008879397020128375 -0.03580365293513782 0.0
0.00827290032696331 -0.03171007694893709 0.0
0.01474905687218354 -0.04950138103634297 0.0
0.012380981451850093 -0.02393554509643469 0.0
0.01211217538729246 -0.01952528072157898 0.0
0.02330960999745975 -0.032933188855010946 0.0
0.0147535715169109 -0.016000746355521546 0.0
0.01345147133441809 -0.04165335860706946 0.0
0.014407101623833865 -0.04801927444290948 0.0
0.01320422250496952 -0.0383362273323201 0.0
0.018384081972641058 -0.038165354516991705 0.0
0.0187562138062931 -0.03440330633540975 0.0
0.017673030849499154 -0.045716608395657 0.0
0.017603928160071072 -0.050587222804017756 0.0
0.01911219441199065 -0.009700372922745414 0.0
0.01775455214659022 -0.05039814741061949 0.0
0.019549217564282025 -0.009338158040543066 0.0
0.011762706316615416 -0.009925825172541716 0.0
0.015398785537126876 -0.051111926633518004 0.0
0.019825924217673582 -0.019259548610466554 0.0
0.016296294518791322 -0.05147016383103369 0.0
0.017147523064138716 -0.047841324615297914 0.0
0.01855249199122961 -0.028993614211551434 0.0
0.01572451060676958 -0.05123234958120705 0.0
0.016098654693965205 -0.05157403468464579 0.0
0.02435750445122849 -0.025259182599884904 0.0
0.007039755096129472 -0.008003592086546064 0.0
0.020359571093333487 -0.04592449104554157 0.0
0.015232059585255074 -0.05139760298229054 0.0
0.018924518770869404 -0.049015713375518744 0.0
0.016017468411914756 -0.05160623828807921 0.0
0.012108680939550493 -0.008444319087890914 0.0
0.012849407757189856 -0.030387440128755078 0.0
0.012430796850958336 -0.025514163983263064 0.0
0.013230399729071462 -0.03688769848753732 0.0
0.014272574530044836 -0.04704652809711294 0.0
0.013032444350232915 -0.03292295334924188 0.0
0.0139958360767855 -0.04472646916848224 0.0
0.017588459823907266 -0.04184847197102059 0.0
0.018487846972877503 -0.024017874528899273 0.0
0.0178645537815926 -0.038688124178253416 0.0
0.01694330110003723 -0.04820175655413878 0.0
0.016332729040120442 -0.05115258135472392 0.0
0.015411885926459886 -0.051424810660444666 0.0
0.009510992037526953 -0.04028052249593448 0.0
0.00877203549283104 -0.03678451744276985 0.0
0.01147609590192053 -0.047122342559827515 0.0
0.025254104629653294 -0.02105348346544918 0.0
0.022964903018506275 -0.03938757373279154 0.0
0.020366086804841803 -0.04652146061638224 0.0
0.023454196933960458 -0.03589987970387034 0.0
0.016690292747222224 -0.04965935728855272 0.0
0.014128644850497616 -0.050699842653938704 0.0
0.01995048078665462 -0.019804954607405105 0.0
0.018465729835298178 -0.023667122254146564 0.0
0.01245928201673412 -0.04865326731097604 0.0
0.006355024725342322 -0.014436856252372525 0.0
0.025952821851177525 -0.013950388525522505 0.0
0.006922125552469864 -0.02644068458587028 0.0
0.01610580497295639 -0.05148226253599285 0.0
0.015461927254424798 -0.05143772723714836 0.0
0.01664644314455233 -0.05059334795921547 0.0
0.02140175826545783 -0.04297436641107074 0.0
0.024296603254381866 -0.030411700116153267 0.0
0.015588184397395347 -0.05152783953004467 0.0
0.006723666991614072 -0.02404718871385298 0.0
0.026035949014188337 -0.014027658818551591 0.0
0.025887796151464484 -0.00911853281504779 0.0
0.025312897115756336 -0.02122874101950946 0.0
0.010025681475777549 -0.04156038004989081 0.0
0.010624879517078316 -0.044356264841833935 0.0
0.011842483503391016 -0.014619016759398014 0.0
0.006057512310454336 -0.019698944811165006 0.0
0.02066408567224538 -0.025991145428411324 0.0
0.010579267162856981 -0.04519114627798867 0.0
0.013747977323197937 -0.03966552792188818 0.0
0.014502680759427976 -0.04673081070814243 0.0
0.013585514427929834 -0.0360576214399614 0.0
0.005609876430022481 -0.013083871020221434 0.0
0.02442954976168768 -0.030476173714939138 0.0
0.014681690496142267 -0.04855967468438451 0.0
0.01892137018883774 -0.04326866934697178 0.0
0.017681764931292896 -0.048939542776409946 0.0
0.01949914582865242 -0.040166854119832 0.0
0.020801480024748374 -0.026239030259511145 0.0
0.017380826675791442 -0.05097718152841222 0.0
0.01326670157975287 -0.027105096309455817 0.0
0.0220367665476868 -0.04205389610524949 0.0
0.02301100476122544 -0.038989710218912024 0.0
0.019629072824357927 -0.04823655746530668 0.0
0.021963333452712112 -0.014781741519200692 0.0
0.013328260418135446 -0.014310258306991298 0.0
0.01393341183792927 -0.05054084764698878 0.0
0.017719315886239567 -0.048677794402633444 0.0
0.00831334760552572 -0.03801444165243924 0.0
0.007539639138565271 -0.03420849734829033 0.0
0.01717286085370986 -0.050529845267460995 0.0
0.012972359825512059 -0.023001884160463157 0.0
0.021466021471355314 -0.03195074000656282 0.0
0.018117382291820614 -0.012819473910393517 0.0
0.018527269038660872 -0.04989252711935861 0.0
0.02241375497623774 -0.007538723877202277 0.0
0.011638217140808642 -0.047362969408735925 0.0
0.00686603665094504 -0.02938070855620621 0.0
0.016873156805771394 -0.05103526695396135 0.0
0.012583110251068176 -0.04911365513074269 0.0
0.01816703862691769 -0.046706198864834486 0.0
0.02394616866415328 -0.03559692574284231 0.0
0.01585411293822253 -0.051679084869180054 0.0
0.016394512657984348 -0.008414563496606358 0.0
0.014858637282873982 -0.050748045114748015 0.0
0.015574053087717827 -0.05005977674786194 0.0
0.014836028138360843 -0.02940731842492051 0.0
0.015155254126838387 -0.04236541026776002 0.0
0.014876091512006947 -0.03371786767879891 0.0
0.015188455838379909 -0.04507947160146972 0.0
0.005913639841477469 -0.020587339070187845 0.0
0.016886574742961315 -0.008174018392660782 0.0
0.019925647082660394 -0.047792751694671225 0.0
0.015843200812269354 -0.051669213735347996 0.0
0.015462589480656753 -0.05151268784519338 0.0
0.012525472499602631 -0.011194402500336204 0.0
0.025982387184801996 -0.024075348321219672 0.0
0.020207249498304807 -0.03213715038559081 0.0
0.020129861551675333 -0.03594543432191212 0.0
0.01872627699782995 -0.04425124114257038 0.0
0.012555428499144731 -0.04046914039782172 0.0
0.012933698899074409 -0.04348673769115385 0.0
0.014275762312935933 -0.0491975660790398 0.0
0.007187526596630659 -0.033728820884112276 0.0
0.0065282560076536725 -0.029410127966177542 0.0
0.013326851834533436 -0.04739533785661532 0.0
0.011439842744901084 -0.037355435523808045 0.0
0.011877705756371707 -0.040794353454257984 0.0
0.01831559636358581 -0.0314810062951117 0.0
0.01785799781528249 -0.013483099927939328 0.0
0.009388942466708235 -0.008463522653959415 0.0
0.02205142245136082 -0.0072829454763805295 0.0
0.01663788053196303 -0.045047605604426874 0.0
0.017074643991330265 -0.0339051780366711 0.0
0.01631575080131381 -0.049974734798856 0.0
0.016888137459376073 -0.04230767160639601 0.0
0.01728151591327164 -0.029194025240343643 0.0
0.024655668195340718 -0.02797233240296555 0.0
0.009546678006014728 -0.00644857216655422 0.0
0.020140826853708105 -0.03915043322502278 0.0
0.018805227298587128 -0.04636122105836952 0.0
0.020745501208215306 -0.03551531836746201 0.0
0.01492439836016423 -0.03809886358723491 0.0
0.015336929081874593 -0.04568100367532057 0.0
0.014902051745566778 -0.03425703624505159 0.0
0.01740314965871859 -0.05094552929197721 0.0
0.015336786118886827 -0.04784556494609695 0.0
0.011175609225391995 -0.0355463498488682 0.0
0.010801802173031902 -0.03141365688214431 0.0
0.01864902103374718 -0.049811711414360964 0.0
0.01634744055947101 -0.05143052216274754 0.0
0.013324375052547296 -0.021438429708628984 0.0
0.014825987851042112 -0.023666315502662332 0.0
0.014623596294619547 -0.018500932321739327 0.0
0.013981952131773603 -0.04938363410354422 0.0
0.014892047524503016 -0.02892983863902413 0.0
0.008441846546175412 -0.03848249467353492 0.0
0.009300477908694984 -0.0417495170566869 0.0
0.015946806100747342 -0.05146098473359318 0.0
0.02414433427565216 -0.03380783756201511 0.0
0.021070863623615287 -0.04523547819198264 0.0
0.012252794292842985 -0.04485323555153327 0.0
0.011734731700654161 -0.042046695868844644 0.0
0.01017195565903615 -0.024455416238662746 0.0
0.026906401743047197 -0.006676120738035028 0.0
0.005414951431008335 -0.00872729409159375 0.0
0.016785601700457536 -0.018104550046908592 0.0
0.01650911094705717 -0.050702893133294805 0.0
0.015538444328459109 -0.04972435265935601 0.0
0.015187838859851217 -0.05030349175961159 0.0
0.014042808659894896 -0.008422040227779428 0.0
0.014423420212889799 -0.051023555750476526 0.0
0.026183366229874952 -0.018161228744089538 0.0
0.01513389126436179 -0.02394933167249501 0.0
0.02093014605327949 -0.012374458187092903 0.0
0.014433573141417185 -0.05010209150599262 0.0
0.015322004041514459 -0.04190603335607016 0.0
0.015549568488407058 -0.04827004962984069 0.0
0.015288296422521436 -0.03878231597792672 0.0
0.010297222397011014 -0.021816598408601902 0.0
0.010488975827774985 -0.030422106825506112 0.0
0.010158383814044509 -0.02574152730189033 0.0
0.013132512478580653 -0.04701825686372045 0.0
0.012576664015380132 -0.04465269700312695 0.0
0.016122381056387865 -0.05096242064408306 0.0
0.012665000354877642 -0.049486707412457295 0.0
0.021978608631126068 -0.020394536088228603 0.0
0.022318552500452445 -0.029357058390752876 0.0
0.020327436012271896 -0.04234584703008676 0.0
0.015419477006809533 -0.050716954604004286 0.0
0.01774632775160942 -0.04996317430259784 0.0
0.005261516315231226 -0.023904027511736724 0.0
0.009675143956899779 -0.020092134982210418 0.0
0.010163006383232132 -0.017266033277451853 0.0
0.018521702388736593 -0.02643247027922846 0.0
0.017494579656531745 -0.043357336380291545 0.0
0.017885201285488504 -0.04040106138779 0.0
0.016856774196120795 -0.04907143249951633 0.0
0.019590924870473526 -0.04522840069843834 0.0
0.014412593004840452 -0.043531638782801876 0.0
0.015111132312570615 -0.049216577588106734 0.0
0.014273176597750509 -0.040567152887177674 0.0
0.026040886542692213 -0.011496542348118253 0.0
0.015799309041257863 -0.05124082505222846 0.0
0.018456372324120042 -0.04015340210607124 0.0
0.01874483909401172 -0.03698048050901413 0.0
0.01752210991686433 -0.047249533719039435 0.0
0.017050606285446974 -0.04645989857779344 0.0
0.011769050116291709 -0.04803337543889828 0.0
0.016095146849732553 -0.051569264514946596 0.0
0.017409185386139895 -0.04397121086679637 0.0
0.018164163932157872 -0.031666961549221995 0.0
0.01810309063273783 -0.021319450943194852 0.0
0.021208985371295376 -0.04466736724863903 0.0
0.009841383951005915 -0.011708922702774082 0.0
0.021627581706570163 -0.011095859108424054 0.0
0.023481089136591995 -0.037767974718389795 0.0
0.008773479538952836 -0.019227214985553156 0.0
0.014610374467485929 -0.050902793595954975 0.0
0.02189387522104518 -0.01689840307492461 0.0
0.021128615291852514 -0.017097973819051798 0.0