<VTKFile type="UnstructuredGrid"  version="0.1">
<UnstructuredGrid>
<Piece NumberOfPoints="713" NumberOfCells="1304">
<Points>
<DataArray type="Float64" NumberOfComponents="3" format="ascii">
0.0 0.0 0.0
10.0 0.0 0.0
10.0 2.0 0.0
5.0 2.0 0.0
0.0 2.0 0.0
0.199999999999856 0.0 0.0
0.3999999999996677 0.0 0.0
0.5999999999994683 0.0 0.0
0.7999999999993286 0.0 0.0
0.9999999999991888 0.0 0.0
1.199999999999033 0.0 0.0
1.399999999998576 0.0 0.0
1.599999999997992 0.0 0.0
1.799999999997408 0.0 0.0
1.999999999996825 0.0 0.0
2.199999999996241 0.0 0.0
2.399999999995657 0.0 0.0
2.599999999995073 0.0 0.0
2.79999999999449 0.0 0.0
2.999999999993906 0.0 0.0
3.199999999993322 0.0 0.0
3.399999999992738 0.0 0.0
3.599999999992154 0.0 0.0
3.799999999991571 0.0 0.0
3.999999999991022 0.0 0.0
4.199999999991187 0.0 0.0
4.399999999991491 0.0 0.0
4.599999999991795 0.0 0.0
4.799999999992099 0.0 0.0
4.999999999992403 0.0 0.0
5.199999999992706 0.0 0.0
5.39999999999301 0.0 0.0
5.599999999993313 0.0 0.0
5.799999999993618 0.0 0.0
5.999999999993922 0.0 0.0
6.199999999994227 0.0 0.0
6.39999999999453 0.0 0.0
6.599999999994833 0.0 0.0
6.799999999995138 0.0 0.0
6.999999999995442 0.0 0.0
7.199999999995747 0.0 0.0
7.39999999999605 0.0 0.0
7.599999999996353 0.0 0.0
7.799999999996658 0.0 0.0
7.999999999996962 0.0 0.0
8.199999999997265 0.0 0.0
8.399999999997569 0.0 0.0
8.599999999997873 0.0 0.0
8.799999999998176 0.0 0.0
8.99999999999848 0.0 0.0
9.199999999998786 0.0 0.0
9.399999999999089 0.0 0.0
9.599999999999392 0.0 0.0
9.799999999999697 0.0 0.0
10.0 0.1999999999996293 0.0
10.0 0.3999999999991157 0.0
10.0 0.5999999999985328 0.0
10.0 0.7999999999979498 0.0
10.0 0.9999999999973885 0.0
10.0 1.199999999997894 0.0
10.0 1.39999999999842 0.0
10.0 1.599999999998947 0.0
10.0 1.799999999999474 0.0
9.799999999999999 2.0 0.0
9.6 2.0 0.0
9.399999999999999 2.0 0.0
9.2 2.0 0.0
8.999999999999998 2.0 0.0
8.799999999999999 2.0 0.0
8.599999999999998 2.0 0.0
8.399999999999999 2.0 0.0
8.2 2.0 0.0
7.999999999999998 2.0 0.0
7.799999999999999 2.0 0.0
7.599999999999999 2.0 0.0
7.399999999999999 2.0 0.0
7.199999999999999 2.0 0.0
7.0 2.0 0.0
6.799999999999999 2.0 0.0
6.6 2.0 0.0
6.399999999999999 2.0 0.0
6.199999999999999 2.0 0.0
5.999999999999999 2.0 0.0
5.8 2.0 0.0
5.6 2.0 0.0
5.399999999999999 2.0 0.0
5.199999999999999 2.0 0.0
4.8 2.0 0.0
4.6 2.0 0.0
4.399999999999999 2.0 0.0
4.199999999999998 2.0 0.0
3.999999999999999 2.0 0.0
3.799999999999999 2.0 0.0
3.599999999999999 2.0 0.0
3.399999999999999 2.0 0.0
3.199999999999998 2.0 0.0
2.999999999999999 2.0 0.0
2.799999999999999 2.0 0.0
2.599999999999999 2.0 0.0
2.399999999999999 2.0 0.0
2.199999999999999 2.0 0.0
2.0 2.0 0.0
1.799999999999999 2.0 0.0
1.599999999999999 2.0 0.0
1.399999999999999 2.0 0.0
1.199999999999999 2.0 0.0
0.9999999999999991 2.0 0.0
0.7999999999999998 2.0 0.0
0.5999999999999996 2.0 0.0
0.3999999999999995 2.0 0.0
0.1999999999999993 2.0 0.0
0.0 1.799999999999167 0.0
0.0 1.6 0.0
0.0 1.400000000001387 0.0
0.0 1.200000000002774 0.0
0.0 1.000000000004117 0.0
0.0 0.8000000000033287 0.0
0.0 0.6000000000024965 0.0
0.0 0.4000000000016644 0.0
0.0 0.200000000000832 0.0
1.499207686858938 0.9671416246672391 0.0
2.690335006295381 0.9619521672166851 0.0
3.892537609238439 1.007271393615351 0.0
8.916602958236062 0.9848120741100651 0.0
7.714518201951718 1.024234589865042 0.0
6.514518201951581 1.024234589865268 0.0
5.299999999999998 1.000000000000349 0.0
0.7620577975594133 1.201991596673393 0.0
4.61755859746166 1.240410629378135 0.0
2.099999999996533 0.6749999999988996 0.0
3.289480163184942 0.6802242156869155 0.0
8.299999999999976 1.325000000000064 0.0
7.110519836808121 1.319775784312006 0.0
5.893184537067197 1.292851873188582 0.0
3.268568008578649 1.341967835735878 0.0
2.118368267083699 1.321829331075689 0.0
5.930896443153832 0.6493414313150682 0.0
7.106926174231782 0.6329785805444448 0.0
8.306926174233002 0.6329785805444098 0.0
4.427960725065653 0.6389803625370323 0.0
0.9828791719046732 0.6520555711814596 0.0
9.383333333333349 0.6166666666667164 0.0
9.383333333333326 1.383333333333367 0.0
4.974443803660211 0.5526668589022862 0.0
1.248084267804327 1.464555585366204 0.0
4.139486343919472 1.468449088519687 0.0
5.077806736162063 1.478342020848787 0.0
1.629462398503482 0.5098631373669138 0.0
2.579462070540726 0.5133714280880515 0.0
3.770778974032556 0.5099482598296803 0.0
8.764748922637567 1.526880805960684 0.0
7.820537929455645 1.486628571911716 0.0
6.632254923791462 1.492045881343967 0.0
2.796478414430566 1.477149214423874 0.0
6.403521585563812 0.5228507855762514 0.0
7.603521585564883 0.5228507855756581 0.0
8.783559188644787 0.5066440811355862 0.0
0.5060338924245764 0.5082251307884346 0.0
5.451633334958382 0.4799315318847731 0.0
1.683269995544083 1.547372422998862 0.0
0.448590368789599 1.551409631210402 0.0
5.545526974704655 1.582008455135239 0.0
3.666056976948354 1.56999765613834 0.0
0.4385739326402744 0.9352922270094057 0.0
9.58170539854767 0.9922137522194456 0.0
4.93200119575972 0.9247090920592975 0.0
6.20679636316332 1.642443126922768 0.0
7.418963044745086 1.587405313446662 0.0
2.98103695524982 0.412594686552066 0.0
2.420975602092416 1.592770352831584 0.0
7.97902439790374 0.4072296471687943 0.0
6.779024397902082 0.4072296471687297 0.0
1.130444757308209 0.9859238872709168 0.0
0.8901814758011342 1.60566856081121 0.0
4.263670373274499 0.9915754392410991 0.0
3.096698167273431 1.009056907826855 0.0
6.088506433998166 0.9857489435828969 0.0
1.902225037409936 1.003483800311746 0.0
7.288506433998439 0.9857489435828686 0.0
8.498964973312972 1.005823551167602 0.0
2.307571737417198 1.008136792450924 0.0
8.100397971125554 1.000138280273345 0.0
6.900397971125225 1.000138280273792 0.0
3.499307350770321 0.9996496628144824 0.0
5.703656022566558 0.9885479657552226 0.0
4.719420624357892 1.622286409566126 0.0
4.099803549896894 0.3600308081356619 0.0
1.286100671532495 0.3637431910670685 0.0
9.120549139677793 1.655065205594329 0.0
9.11726214008418 0.3400668903113251 0.0
4.642568097328033 0.3514924793220939 0.0
9.630437629189052 0.3309104953729904 0.0
9.674493769554315 1.668196579944218 0.0
1.936458797611609 0.3337070483410596 0.0
3.461817573918652 0.3447876019040473 0.0
8.440152788772068 1.649667667046397 0.0
6.973083089482548 1.643748677366674 0.0
3.126874515006838 1.659115470008545 0.0
6.070607878384977 0.3410183041038941 0.0
7.255014454789089 0.32792256737713 0.0
8.462493615948901 0.3368393217476116 0.0
9.236261261261264 0.9276047786917867 0.0
5.885444386845415 1.667751020273455 0.0
0.8062340689595878 0.3261579034781319 0.0
2.29463843780282 0.308358158429197 0.0
8.10536156219338 1.691641841570632 0.0
4.041916759198581 0.7211683801597477 0.0
1.324377365289917 0.710525897087282 0.0
9.023167917315867 1.292262965009952 0.0
2.044244009166302 1.693807225416931 0.0
0.7675765545556328 0.8969765944392112 0.0
2.86965991063896 0.7069213925303978 0.0
6.330340089355722 1.293078607468788 0.0
7.530340089355831 1.29307860746885 0.0
2.509347777214458 1.27231292939881 0.0
7.890652222779963 0.7276870706009825 0.0
6.690652222780154 0.7276870706013264 0.0
4.380959112578968 1.65866292149053 0.0
0.3278422400819535 1.233362752678148 0.0
5.754468991464942 0.3469215055361071 0.0
9.69195804401614 0.7000195364707393 0.0
9.691250997975434 1.303243780084337 0.0
5.54324561063747 1.237401556904767 0.0
9.044596057577811 0.6843248705785732 0.0
5.208929198448351 0.3519433027337513 0.0
3.708880196230617 1.249762029554333 0.0
1.713349558540635 1.234899745098077 0.0
4.586522821995393 0.9261740906803194 0.0
5.241145838821565 0.7007005766013242 0.0
1.434457446926135 1.701926055218157 0.0
0.2821921707428039 0.3393165318407161 0.0
3.42846431357046 1.714274134409306 0.0
5.26283485467567 1.710141275531951 0.0
3.966530105129177 1.718376080180638 0.0
4.891301048299285 1.259923533724591 0.0
0.2787500712946937 0.6906723798523376 0.0
1.822166578929051 0.7301892210727335 0.0
8.593276160688786 1.287322908694633 0.0
2.386017956680413 0.7288816957021155 0.0
3.576911792171353 0.7225526638483954 0.0
8.013982043315597 1.271118304297217 0.0
6.82303669320588 1.277631295759485 0.0
2.891837633696712 1.215141906356511 0.0
8.708162366297856 0.7848580936429009 0.0
7.496736072543097 0.7897651325976158 0.0
6.296736072542775 0.7897651325982009 0.0
5.523181420933933 0.7588744249744506 0.0
4.725538117155759 0.6529070682798582 0.0
2.736307197014292 0.273961667653487 0.0
7.663692802980817 1.726038332346062 0.0
6.446842959287713 1.783714797320288 0.0
1.126188383272983 1.743715177525389 0.0
2.64757240694847 1.787239829472812 0.0
6.546646507559373 0.2589894635657943 0.0
7.746646507561152 0.2589894635657218 0.0
4.079302268890254 1.221431431691139 0.0
4.433746883463333 0.2983726043497702 0.0
1.032697650548726 1.318076986199429 0.0
1.309492735411376 1.208980965369829 0.0
3.896105387998365 0.2579746081881307 0.0
9.378751775005455 1.725996478164223 0.0
9.3965279828929 0.2649862374471925 0.0
1.515757555362918 0.2603060454608533 0.0
4.959097093232828 1.726144293543605 0.0
4.912501341257775 0.2529154558175828 0.0
4.342421824442713 1.285376618065631 0.0
7.023506283123107 0.293611963231815 0.0
8.215829626877609 0.2682061590942965 0.0
5.28145265730745 1.291130016052329 0.0
8.693992162747364 1.744100892812201 0.0
0.6256567126095668 1.775064851453201 0.0
0.2724967459749605 1.756941612685287 0.0
8.90781713264278 0.2741674349222226 0.0
7.184202236567151 1.709454269177068 0.0
3.212962614055919 0.2641656831057426 0.0
0.6761590188374282 0.6746441670621973 0.0
1.020489328989316 0.2487299689497893 0.0
1.485017749467193 1.402133856149482 0.0
6.734223224917944 1.790518105434539 0.0
2.657549589911705 0.7636227781082678 0.0
6.542590471647475 1.237213715285722 0.0
7.742745187066703 1.235538225115726 0.0
0.5794341726414672 0.2480285055479751 0.0
1.842901067642841 1.760146518280044 0.0
3.84389577648662 0.7524680119172447 0.0
3.061589173628368 1.407936939342627 0.0
6.144447294584154 0.5911674363009913 0.0
7.344447294585433 0.5911674362995804 0.0
8.544447294586682 0.5911674362982269 0.0
5.491507940982565 0.1734458797927824 0.0
[...]
<PointData Vectors="fields">
<DataArray type="Float64" Name="U" NumberOfComponents="3" format="ascii">
0.0 0.0 0.0
0.031172225594847325 0.0 0.0
0.0025992813902978853 -0.005773192453144531 0.0
0.015501211620632942 -0.049707510187298104 0.0
0.028328017864881948 -0.005411426120951584 0.0
0.0003380512085159929 -0.005946259481684096 0.0
0.0009888170424824478 -0.009750792102760586 0.0
0.0015735864594075546 -0.013117265801812227 0.0
0.002062050592796258 -0.016072267081823202 0.0
0.0024903066350868306 -0.01889288295225782 0.0
0.002903858838340344 -0.021602328651928567 0.0
0.0033197443277381373 -0.02420951803313949 0.0
0.003776608735559502 -0.026728958209692916 0.0
0.0042479807137197605 -0.029161805811341063 0.0
0.004756481843446598 -0.031481456796193436 0.0
0.0052898682885724226 -0.03368719071784857 0.0
0.005870478764785796 -0.035781296651812886 0.0
0.0064606351464201964 -0.03774613100491701 0.0
0.007110262484517509 -0.03958217648184017 0.0
0.0077569944770332295 -0.041281881885714224 0.0
0.008455954679430378 -0.042838508728679794 0.0
0.009157549450794545 -0.044238867499961636 0.0
0.009895603870074168 -0.045493660654605646 0.0
0.010640469152786398 -0.04656158497130816 0.0
0.011393519721671715 -0.04752062339945481 0.0
0.012177545289941924 -0.0482944072051283 0.0
0.012953771518203594 -0.04889708906770068 0.0
0.013753846756676957 -0.04933932209643739 0.0
0.014541570360352559 -0.049602567913968755 0.0
0.01536275108331257 -0.04970428135646553 0.0
0.0161622532277685 -0.049635468367092726 0.0
0.016962723672303698 -0.049391252786795306 0.0
0.017761347505176044 -0.048979921294712084 0.0
0.018551924059922772 -0.048395286800653595 0.0
0.01932329499024076 -0.04764998267015383 0.0
0.02011303358088462 -0.0467505868155849 0.0
0.020862961881133478 -0.04564361166980721 0.0
0.021615374795249498 -0.044431427703479895 0.0
0.022333389096505903 -0.04305883227749269 0.0
0.02304890264517341 -0.04151177427569458 0.0
0.02372179916520633 -0.039823593224044496 0.0
0.024367902422977507 -0.038002810886771904 0.0
0.024965295243345283 -0.036017617667229815 0.0
0.025548004394704955 -0.033953721533811584 0.0
0.026084089186060474 -0.03176384342521639 0.0
0.026599017372119647 -0.02945176257161478 0.0
0.0270720621383108 -0.02702697686360728 0.0
0.027525191359675023 -0.024516005231187254 0.0
0.02793913546676031 -0.021909144049953234 0.0
0.028362324166608093 -0.01920220162615691 0.0
0.028777271064502685 -0.016398720350550816 0.0
0.029239031062705215 -0.01343710386682651 0.0
0.029750784965114553 -0.010223172309458645 0.0
0.030545674087811146 -0.006397239334317005 0.0
0.026324568268342834 -0.0022865467714273595 0.0
0.023201805928108245 -0.0035346079359766334 0.0
0.020364166899085438 -0.004326892242130049 0.0
0.017760825868148325 -0.004925243134465784 0.0
0.015234255043908834 -0.0053005378985838455 0.0
0.012754049454889161 -0.00554479338265978 0.0
0.010276088401474788 -0.00569274376028458 0.0
0.007760958398880688 -0.00575913729803755 0.0
0.005200992779819011 -0.005772875519641554 0.0
0.002597439013200706 -0.008384513253698888 0.0
0.0026048212740665383 -0.011029664760409327 0.0
0.002654178304476975 -0.013715364465172254 0.0
0.0027674776150805446 -0.016428695015832412 0.0
0.002954520246934546 -0.019131040664673703 0.0
0.0032085558769419657 -0.02178684581302808 0.0
0.003531960654080695 -0.02440795453135041 0.0
0.0039108888247724695 -0.026936145104327458 0.0
0.004346568822127111 -0.02937041455172546 0.0
0.004843609654925399 -0.03170783180233494 0.0
0.0053640700567526645 -0.0339230764759265 0.0
0.005950523585736342 -0.03602103419244937 0.0
0.006544046583464674 -0.03798830781991606 0.0
0.007194437443413285 -0.039818288319918155 0.0
0.007864015585684175 -0.04151132855804815 0.0
0.008560161640712436 -0.04305502645611599 0.0
0.009262928695840236 -0.04441062957311781 0.0
0.010003885588437008 -0.04567769237994295 0.0
0.0107611789614829 -0.04674337699765327 0.0
0.011513383944648068 -0.04765295016736933 0.0
0.01229817173312421 -0.04840691182147577 0.0
0.01310650249258095 -0.04898533930535786 0.0
0.013885346138813433 -0.04939437222861372 0.0
0.014699432792994472 -0.049637651525265884 0.0
0.01632101644175847 -0.04959349015024804 0.0
0.017104066535097693 -0.0493272941604777 0.0
0.01787946767756115 -0.04889445816890325 0.0
0.018672002236171204 -0.048303392991357455 0.0
0.01945595961585184 -0.047522936938490225 0.0
0.02023569525075133 -0.04658226304104382 0.0
0.020963351821132577 -0.04548995317221896 0.0
0.021698037504020225 -0.0442370127661435 0.0
0.02240731704144221 -0.04283846185041612 0.0
0.023104888980930965 -0.0412849443603722 0.0
0.023755463048411356 -0.03955271991759503 0.0
0.024398469534261027 -0.037739061434942774 0.0
0.024993761965557484 -0.035758312848997345 0.0
0.025553058029572303 -0.03365119025295733 0.0
0.026093555327060498 -0.031423309801557886 0.0
0.026583329970334788 -0.029081329851865664 0.0
0.02701249018987222 -0.02664213670700546 0.0
0.027407241316267462 -0.024099547711143976 0.0
0.027727259576491296 -0.02148380755519842 0.0
0.027983449414303696 -0.01880254113464806 0.0
0.028161331367847098 -0.016096092432678753 0.0
0.028267549318733428 -0.013375678050862348 0.0
0.02831956150326717 -0.010684286205066966 0.0
0.02833207622139985 -0.008027412419749138 0.0
0.025718520301376186 -0.0054127269225708145 0.0
0.023149992972258497 -0.00539958190243496 0.0
0.020630887303451223 -0.005338127726615928 0.0
0.01813882224532218 -0.0051964750097146795 0.0
0.0156558514379445 -0.004935235294544356 0.0
0.013124154575369267 -0.004564203281784188 0.0
0.010512903490088184 -0.0039715753402647285 0.0
0.007691425907603959 -0.0031527577099075767 0.0
0.004338053741254373 -0.0017814415342371744 0.0
0.015107512769333722 -0.025620285207186334 0.0
0.01510773680452087 -0.038906058368647335 0.0
0.015453184421014817 -0.04742426349945825 0.0
0.0155083841277546 -0.020409695490365483 0.0
0.015223261786016785 -0.03513751938680174 0.0
0.015307130280030445 -0.04536450970136817 0.0
0.015428072444817266 -0.0499393113101082 0.0
0.01811775145948455 -0.01560413624933016 0.0
0.0158030642484117 -0.04974446207763046 0.0
0.01214607085681812 -0.03282952207645513 0.0
0.013351453918418245 -0.04380539973090055 0.0
0.01186239237387771 -0.02838016249272525 0.0
0.012976708364510592 -0.04089451515853794 0.0
0.014442326892287081 -0.04844407505523957 0.0
0.017674033752133122 -0.04365552933894777 0.0
0.01866713320001208 -0.03300479332120336 0.0
0.01667411544346857 -0.048286351650607295 0.0
0.018296287340071948 -0.040928756698583056 0.0
0.019496561110898744 -0.028356891694376753 0.0
0.014600024358828276 -0.04932305284297314 0.0
0.011265579946388717 -0.0187301689821645 0.0
0.02008060105226481 -0.01376066240486538 0.0
0.01052497895138834 -0.013932895743083767 0.0
0.015347653372423688 -0.05002104912876813 0.0
0.021007852563826312 -0.022247366398227466 0.0
0.01703042348542914 -0.04838200124452548 0.0
0.01530937195017617 -0.050004450897867196 0.0
0.009916411741211417 -0.02725373285173599 0.0
0.01113255535627544 -0.03778523019483032 0.0
0.013074978365427535 -0.046722377072191124 0.0
0.009148791890652059 -0.02237739422384275 0.0
0.01064002977928995 -0.03391399698245237 0.0
0.012416789509735942 -0.04450188292899442 0.0
0.019311342797154005 -0.0397948200749906 0.0
0.01798114294980215 -0.04594039213159174 0.0
0.019892219703295955 -0.03623109218574873 0.0
0.021350322137879515 -0.022243418987838687 0.0
0.009321399899262055 -0.011699554140796814 0.0
0.016316304561230267 -0.04959898655335515 0.0
0.02153878645369512 -0.027825249531561454 0.0
0.022510853027851246 -0.011314576985663929 0.0
0.0142248531571912 -0.04938514613005707 0.0
0.01839273242048766 -0.04612476760908209 0.0
0.014911699386543116 -0.010902251722008208 0.0
0.015267201943632694 -0.010993985773274383 0.0
0.015401745807095763 -0.050105808681295855 0.0
0.012471356945693306 -0.04693721802414484 0.0
0.010305800788042913 -0.038011203899736216 0.0
0.010981082001745234 -0.04134851781291038 0.0
0.02094234766200314 -0.03617131276467496 0.0
0.021597876452809407 -0.032164655140986105 0.0
0.019413362416909444 -0.04343925497464468 0.0
0.015384922448748636 -0.020735789489804285 0.0
0.022994424084730423 -0.01737134844491119 0.0
0.01540169221473529 -0.048903796846514816 0.0
0.01549301935114813 -0.0423959551863718 0.0
0.015498496002722635 -0.047665677200633555 0.0
0.015484345874849446 -0.030573378091863515 0.0
0.015574377391090658 -0.03935244213012338 0.0
0.015338737044499404 -0.025941893819108316 0.0
0.015510270486330796 -0.035103088029198315 0.0
0.01543920401184541 -0.03082677487906336 0.0
0.015447941083675273 -0.04264989435720985 0.0
0.015422422587568218 -0.04525809686867435 0.0
0.01545638159059047 -0.04910430049679216 0.0
0.016159791624614256 -0.04977573527751979 0.0
0.013138158540268997 -0.048169494298676764 0.0
0.007777807175291276 -0.02285402373490772 0.0
0.0072929450533561055 -0.01755327504180871 0.0
0.023796526535190952 -0.017656902563998142 0.0
0.014469387445608434 -0.04965147316004874 0.0
0.024095442360782163 -0.009778528493322093 0.0
0.006905936473036089 -0.010023565639889412 0.0
0.008334331118820664 -0.030902625402310778 0.0
0.01153108348601829 -0.044870165193073505 0.0
0.008044831316052182 -0.02655727872041584 0.0
0.01070759249984389 -0.04193404944227384 0.0
0.020112687606379333 -0.04248618321784515 0.0
0.018140429235231133 -0.04758117530022671 0.0
0.02103327407724125 -0.03952217433895083 0.0
0.02309656702695828 -0.02638204489069547 0.0
0.01613067238417338 -0.01594126508333677 0.0
0.013165743511062658 -0.048332553092667825 0.0
0.0068133045414304665 -0.01624100376827331 0.0
0.008711149676936205 -0.03484798296717835 0.0
0.008065450274232914 -0.03062381028845597 0.0
0.014375763779199469 -0.04806393302656418 0.0
0.012079658578705556 -0.023369642968146417 0.0
0.011783310292479528 -0.018919543863854547 0.0
0.02262419531409218 -0.032074001057275536 0.0
0.014376459271689457 -0.015662242284870776 0.0
0.013120560734642857 -0.040501354897487615 0.0
0.013970922122187108 -0.046425721042938795 0.0
0.012810777521492702 -0.03700984946520414 0.0
0.01787097767783732 -0.03713562873605027 0.0
0.018187631713949284 -0.0332180984983657 0.0
0.017173466217808325 -0.04417241752797011 0.0
0.017077576839011697 -0.04908373664897395 0.0
0.01859243711729252 -0.009538218805453523 0.0
0.01731815698798449 -0.048775194156127 0.0
0.018937907488522046 -0.009106192504168638 0.0
0.011451043241351886 -0.009675889909339541 0.0
0.0149452702087112 -0.04949731740714155 0.0
0.019202574523117386 -0.018665189683973064 0.0
0.01591560062665551 -0.049870173137006965 0.0
0.01667411532897447 -0.04646838377744232 0.0
0.0180397880666829 -0.028271040723765618 0.0
0.015306074165304055 -0.0497093818511925 0.0
0.015686411229615893 -0.049976917694240355 0.0
0.023653159315061283 -0.024643900671789273 0.0
0.006896245647708852 -0.00787055994442827 0.0
0.019772146128115453 -0.044607580245408 0.0
0.014742272747999842 -0.04978899685506305 0.0
0.018370693572937087 -0.04758170781490969 0.0
0.015554820392238733 -0.050042236950029025 0.0
0.01181381367815143 -0.008307595312230307 0.0
0.012535574263668437 -0.02962082799976134 0.0
0.012085396801732413 -0.02467635016189065 0.0
0.012906658308080464 -0.0359032508126122 0.0
0.013912722966363736 -0.045702903474713286 0.0
0.0126539942672883 -0.03179396546484093 0.0
0.013572927715257078 -0.0432064597052836 0.0
0.017104247184019292 -0.04068936053687892 0.0
0.017917066346393746 -0.023239310145207463 0.0
0.01733468053196287 -0.03735102893072776 0.0
0.01647302314290034 -0.04660679079206967 0.0
0.015902577835932193 -0.04953929338083894 0.0
0.015027647311578868 -0.04988119886639354 0.0
0.009324243215846463 -0.03916701535275153 0.0
0.008526870645317618 -0.03550665036687055 0.0
0.011096457830984672 -0.04553543427714108 0.0
0.02452909178076186 -0.02056295889529537 0.0
0.022285149275449345 -0.03830207682465962 0.0
0.019817116530304112 -0.04495119775146401 0.0
0.02272691404150609 -0.034654614170878395 0.0
0.016227010835248395 -0.04821518216933261 0.0
0.013809397172355159 -0.0491895534450075 0.0
0.01939993564491533 -0.019356585492537777 0.0
0.017961139021424988 -0.023107287981418794 0.0
0.012180349197901506 -0.04723422440644894 0.0
0.006245392826471696 -0.014018224110841762 0.0
0.02509623451762458 -0.013552679480617624 0.0
0.006801713158076801 -0.02579093366218768 0.0
0.01559668759478212 -0.04990019478285592 0.0
0.015115997964833691 -0.049863365846520624 0.0
0.01617512977815837 -0.04910438739692852 0.0
0.020788592557538507 -0.041496035639194837 0.0
0.02351424327788773 -0.029374800381018855 0.0
0.015127649422242824 -0.04992679899210171 0.0
0.006593400172944889 -0.02326162826362755 0.0
0.02529467670417113 -0.013741300996408332 0.0
0.025152683088054215 -0.008976481698410085 0.0
0.024477303115207585 -0.020553617773060664 0.0
0.009718264735239814 -0.04012232502466628 0.0
0.010399384400117439 -0.04309684204763698 0.0
0.01155813235123992 -0.01431887325711165 0.0
0.005950018037052524 -0.019252684611803267 0.0
0.020082182064897775 -0.025359120474573185 0.0
0.01023585258107872 -0.04364854191431736 0.0
0.013405909758207978 -0.03858429565477511 0.0
0.014067255744192951 -0.04516345790044357 0.0
0.0131841722573159 -0.03481195369801242 0.0
0.005506828921612634 -0.012823625618951145 0.0
0.023710886871743067 -0.02969537481233025 0.0
0.014307938504579676 -0.04716004984370452 0.0
0.01838817416165524 -0.04205599571791284 0.0
0.017210837058371387 -0.04733146581285913 0.0
0.0189252705420094 -0.038779429709202576 0.0
0.02014382574120687 -0.025371164224261222 0.0
0.016980840337564286 -0.049356270631910316 0.0
0.012936922520959886 -0.026442723920111565 0.0
0.02139120236735313 -0.040874108566395825 0.0
0.02231783871182233 -0.03763541303534229 0.0
0.01912209329853033 -0.04663245403960436 0.0
0.021350957350759966 -0.014475497647680684 0.0
0.012955202336526904 -0.013899957592609879 0.0
0.013475314338186882 -0.04891361387083257 0.0
0.01721881875110202 -0.04726959824979228 0.0
0.008168002087899121 -0.0369786048573517 0.0
0.007349348280625408 -0.03302429147934933 0.0
0.01673557475344999 -0.04890959642371871 0.0
0.01260925268761884 -0.02226296942838081 0.0
0.020847225022042712 -0.031128281431921694 0.0
0.01763077384914368 -0.012568841392698362 0.0
0.01797369079529133 -0.04841637207835168 0.0
0.02178674348828501 -0.007442828821606982 0.0
0.011382805838507436 -0.04599247726689706 0.0
0.0067543332383467845 -0.028636326759472752 0.0
0.016374451629654056 -0.04951349311697506 0.0
0.012161846965433574 -0.04749297504128329 0.0
0.017658065420878544 -0.0453717318319852 0.0
0.023233907558606985 -0.034644032941115316 0.0
0.015410653959008966 -0.050097271325306655 0.0
0.01596175996951662 -0.008285687366925672 0.0
0.014403554911789507 -0.04912757565210747 0.0
0.015124940961009714 -0.04844274326844971 0.0
0.014399809185583331 -0.028416090683941256 0.0
0.014705247192366478 -0.04091232823696723 0.0
0.014491802540707826 -0.032842865213634866 0.0
0.014792627010099103 -0.04380758565288566 0.0
0.005818012101223773 -0.01993533778393744 0.0
0.01638103558158805 -0.007986413616243193 0.0
0.019345032322854862 -0.046403387389908735 0.0
0.015432806495053747 -0.05009214978684172 0.0
0.014987178818161948 -0.04991030399403544 0.0
0.012219780561373478 -0.01098548876061942 0.0
0.02512182401575063 -0.02328712109472577 0.0
0.019582460374539794 -0.031037437550885942 0.0
0.01955410196031779 -0.034990395482018904 0.0
0.01819414038832718 -0.04274301994921248 0.0
0.012177096721050915 -0.03907146251958861 0.0
0.01262230118910261 -0.04226820652573649 0.0
0.013836720591695162 -0.04758524452067764 0.0
0.007074881351862063 -0.03283990149706799 0.0
0.006393755516360801 -0.028412032877260473 0.0
0.012910365509133053 -0.04581074809282859 0.0
0.011103293343096244 -0.03606153456704599 0.0
0.011604654013093341 -0.03966976441105198 0.0
0.01780891098074815 -0.030678809223056196 0.0
0.017310597160328855 -0.013104053262848813 0.0
0.009167362600638253 -0.008267187868276155 0.0
0.02134464014444994 -0.007119000465088913 0.0
0.01618780529972267 -0.043776356532292456 0.0
0.016611036124506637 -0.03302355070016254 0.0
0.015865487354741956 -0.04835828475091448 0.0
0.01639448655053688 -0.04085635378853458 0.0
0.016757971781585362 -0.028210950883732197 0.0
0.023935151809765 -0.02727194524222856 0.0
0.009327631836010375 -0.006357634354864592 0.0
0.019563229504508776 -0.038082634223195855 0.0
0.018287009428272903 -0.04479976647760448 0.0
0.020112292717662135 -0.0342878027008762 0.0
0.014538775163665741 -0.03707353445986542 0.0
0.014885244565914654 -0.04413872713753874 0.0
0.014460477721893527 -0.033078000746119364 0.0
0.01686608992109933 -0.049411412194376066 0.0
0.014935204499882096 -0.04647475190580097 0.0
0.01092535860702482 -0.03460538504422568 0.0
0.0105039234941071 -0.03034178250389682 0.0
0.018192343695028604 -0.04818786543751657 0.0
0.015867085217191695 -0.04988426706859174 0.0
0.012992059713067721 -0.02094619467644115 0.0
0.014443744487460056 -0.023108441097758045 0.0
0.014200217871731785 -0.017935257863136635 0.0
0.013643319605232747 -0.047945899686162564 0.0
0.01450696043039467 -0.028210941470077192 0.0
0.008200010268747698 -0.037142987697357785 0.0
0.009121970372899383 -0.04058124526637186 0.0
0.015507506958753666 -0.04992031376483503 0.0
0.023381353366802804 -0.03263964968060599 0.0
0.020489327303570934 -0.043694780675592584 0.0
0.011967423074052377 -0.04358317966853635 0.0
0.011375847382321414 -0.04059820754700344 0.0
0.00994316406633174 -0.023872187038781793 0.0
0.02601989021761202 -0.0065221062321650786 0.0
0.005341867872339145 -0.008520834553327711 0.0
0.016341199558266347 -0.017706684520021828 0.0
0.016069670790593796 -0.04908473931274559 0.0
0.015128806939973934 -0.04827979462448836 0.0
0.014797444522678553 -0.048831686033747025 0.0
0.013646007776830555 -0.00822695961275182 0.0
0.013945757513308331 -0.04939979031651458 0.0
0.025433483398346772 -0.0177544168260534 0.0
0.014689633071188925 -0.0231740683579457 0.0
0.020351906017412907 -0.012137013719534443 0.0
0.014080927364411695 -0.04863466163579838 0.0
0.014921592978521341 -0.04074661892530453 0.0
0.015097844426923137 -0.04667418289944335 0.0
0.014833867380699282 -0.03744223010776315 0.0
0.010062036584786181 -0.02131267351546128 0.0
0.010256810056560787 -0.029651738980263416 0.0
0.00989643900194344 -0.024893141443003898 0.0
0.012817120306132862 -0.04567145339421753 0.0
0.01218702071972498 -0.04313145571053445 0.0
0.015677307107368747 -0.04945702456383431 0.0
0.012390071957941524 -0.04802749344531081 0.0
0.0213604860772975 -0.01992747292584234 0.0
0.021608558850817767 -0.02836426755143397 0.0
0.019740659254228937 -0.04088905703902215 0.0
0.014969377404003606 -0.04909875836801117 0.0
0.017294895782548465 -0.04834315072159749 0.0
0.005187304367763868 -0.023329140555347575 0.0
0.009437495603526537 -0.01946287859976447 0.0
0.009908583938862958 -0.016744114106409476 0.0
0.017950693008103757 -0.025558461566148435 0.0
0.017013554129055357 -0.04214484635441539 0.0
0.017359369967756198 -0.03900761550562561 0.0
0.01639496218352177 -0.04746320554325345 0.0
0.019032573373167626 -0.04394217256623404 0.0
0.014045930521640016 -0.04231411396303381 0.0
0.014664448804989665 -0.04760635568717012 0.0
0.013846658541010795 -0.039168347462516566 0.0
0.02530074413444736 -0.011284224841315109 0.0
0.015354864557258447 -0.04962896534038301 0.0
0.017940236005645933 -0.039053424567777696 0.0
0.018183373472977753 -0.035701636724140125 0.0
0.017035808960809782 -0.045671420548949584 0.0
0.016583925447828426 -0.04513780377960053 0.0
0.01137421348939314 -0.04642785465280315 0.0
0.015703449753569375 -0.0499762112427661 0.0
0.016907572747854455 -0.042472293882652064 0.0
0.017611277589384317 -0.030586429325877146 0.0
0.01754653653497068 -0.020646413320422663 0.0
0.020592939280526253 -0.04339360407853675 0.0
0.009601271600476503 -0.01139295394179045 0.0
0.020934462165493353 -0.010801828896338421 0.0
0.02278327393355668 -0.036739330935758235 0.0
0.008583672896239729 -0.018797499971176638 0.0
0.014266331251951894 -0.04938808971649641 0.0
0.0211900231015006 -0.016393019917274876 0.0
0.02054175763703227 -0.016726341299180374 0.0
0.016275422427525048 -0.0474361077104004 0.0