<VTKFile type="UnstructuredGrid"  version="0.1">
<UnstructuredGrid>
<Piece NumberOfPoints="713" NumberOfCells="1304">
<Points>
<DataArray type="Float64" NumberOfComponents="3" format="ascii">
0.0 0.0 0.0
10.0 0.0 0.0
10.0 2.0 0.0
5.0 2.0 0.0
0.0 2.0 0.0
0.199999999999856 0.0 0.0
0.3999999999996677 0.0 0.0
0.5999999999994683 0.0 0.0
0.7999999999993286 0.0 0.0
0.9999999999991888 0.0 0.0
1.199999999999033 0.0 0.0
1.399999999998576 0.0 0.0
1.599999999997992 0.0 0.0
1.799999999997408 0.0 0.0
1.999999999996825 0.0 0.0
2.199999999996241 0.0 0.0
2.399999999995657 0.0 0.0
2.599999999995073 0.0 0.0
2.79999999999449 0.0 0.0
2.999999999993906 0.0 0.0
3.199999999993322 0.0 0.0
3.399999999992738 0.0 0.0
3.599999999992154 0.0 0.0
3.799999999991571 0.0 0.0
3.999999999991022 0.0 0.0
4.199999999991187 0.0 0.0
4.399999999991491 0.0 0.0
4.599999999991795 0.0 0.0
4.799999999992099 0.0 0.0
4.999999999992403 0.0 0.0
5.199999999992706 0.0 0.0
5.39999999999301 0.0 0.0
5.599999999993313 0.0 0.0
5.799999999993618 0.0 0.0
5.999999999993922 0.0 0.0
6.199999999994227 0.0 0.0
6.39999999999453 0.0 0.0
6.599999999994833 0.0 0.0
6.799999999995138 0.0 0.0
6.999999999995442 0.0 0.0
7.199999999995747 0.0 0.0
7.39999999999605 0.0 0.0
7.599999999996353 0.0 0.0
7.799999999996658 0.0 0.0
7.999999999996962 0.0 0.0
8.199999999997265 0.0 0.0
8.399999999997569 0.0 0.0
8.599999999997873 0.0 0.0
8.799999999998176 0.0 0.0
8.99999999999848 0.0 0.0
9.199999999998786 0.0 0.0
9.399999999999089 0.0 0.0
9.599999999999392 0.0 0.0
9.799999999999697 0.0 0.0
10.0 0.1999999999996293 0.0
10.0 0.3999999999991157 0.0
10.0 0.5999999999985328 0.0
10.0 0.7999999999979498 0.0
10.0 0.9999999999973885 0.0
10.0 1.199999999997894 0.0
10.0 1.39999999999842 0.0
10.0 1.599999999998947 0.0
10.0 1.799999999999474 0.0
9.799999999999999 2.0 0.0
9.6 2.0 0.0
9.399999999999999 2.0 0.0
9.2 2.0 0.0
8.999999999999998 2.0 0.0
8.799999999999999 2.0 0.0
8.599999999999998 2.0 0.0
8.399999999999999 2.0 0.0
8.2 2.0 0.0
7.999999999999998 2.0 0.0
7.799999999999999 2.0 0.0
7.599999999999999 2.0 0.0
7.399999999999999 2.0 0.0
7.199999999999999 2.0 0.0
7.0 2.0 0.0
6.799999999999999 2.0 0.0
6.6 2.0 0.0
6.399999999999999 2.0 0.0
6.199999999999999 2.0 0.0
5.999999999999999 2.0 0.0
5.8 2.0 0.0
5.6 2.0 0.0
5.399999999999999 2.0 0.0
5.199999999999999 2.0 0.0
4.8 2.0 0.0
4.6 2.0 0.0
4.399999999999999 2.0 0.0
4.199999999999998 2.0 0.0
3.999999999999999 2.0 0.0
3.799999999999999 2.0 0.0
3.599999999999999 2.0 0.0
3.399999999999999 2.0 0.0
3.199999999999998 2.0 0.0
2.999999999999999 2.0 0.0
2.799999999999999 2.0 0.0
2.599999999999999 2.0 0.0
2.399999999999999 2.0 0.0
2.199999999999999 2.0 0.0
2.0 2.0 0.0
1.799999999999999 2.0 0.0
1.599999999999999 2.0 0.0
1.399999999999999 2.0 0.0
1.199999999999999 2.0 0.0
0.9999999999999991 2.0 0.0
0.7999999999999998 2.0 0.0
0.5999999999999996 2.0 0.0
0.3999999999999995 2.0 0.0
0.1999999999999993 2.0 0.0
0.0 1.799999999999167 0.0
0.0 1.6 0.0
0.0 1.400000000001387 0.0
0.0 1.200000000002774 0.0
0.0 1.000000000004117 0.0
0.0 0.8000000000033287 0.0
0.0 0.6000000000024965 0.0
0.0 0.4000000000016644 0.0
0.0 0.200000000000832 0.0
1.499207686858938 0.9671416246672391 0.0
2.690335006295381 0.9619521672166851 0.0
3.892537609238439 1.007271393615351 0.0
8.916602958236062 0.9848120741100651 0.0
7.714518201951718 1.024234589865042 0.0
6.514518201951581 1.024234589865268 0.0
5.299999999999998 1.000000000000349 0.0
0.7620577975594133 1.201991596673393 0.0
4.61755859746166 1.240410629378135 0.0
2.099999999996533 0.6749999999988996 0.0
3.289480163184942 0.6802242156869155 0.0
8.299999999999976 1.325000000000064 0.0
7.110519836808121 1.319775784312006 0.0
5.893184537067197 1.292851873188582 0.0
3.268568008578649 1.341967835735878 0.0
2.118368267083699 1.321829331075689 0.0
5.930896443153832 0.6493414313150682 0.0
7.106926174231782 0.6329785805444448 0.0
8.306926174233002 0.6329785805444098 0.0
4.427960725065653 0.6389803625370323 0.0
0.9828791719046732 0.6520555711814596 0.0
9.383333333333349 0.6166666666667164 0.0
9.383333333333326 1.383333333333367 0.0
4.974443803660211 0.5526668589022862 0.0
1.248084267804327 1.464555585366204 0.0
4.139486343919472 1.468449088519687 0.0
5.077806736162063 1.478342020848787 0.0
1.629462398503482 0.5098631373669138 0.0
2.579462070540726 0.5133714280880515 0.0
3.770778974032556 0.5099482598296803 0.0
8.764748922637567 1.526880805960684 0.0
7.820537929455645 1.486628571911716 0.0
6.632254923791462 1.492045881343967 0.0
2.796478414430566 1.477149214423874 0.0
6.403521585563812 0.5228507855762514 0.0
7.603521585564883 0.5228507855756581 0.0
8.783559188644787 0.5066440811355862 0.0
0.5060338924245764 0.5082251307884346 0.0
5.451633334958382 0.4799315318847731 0.0
1.683269995544083 1.547372422998862 0.0
0.448590368789599 1.551409631210402 0.0
5.545526974704655 1.582008455135239 0.0
3.666056976948354 1.56999765613834 0.0
0.4385739326402744 0.9352922270094057 0.0
9.58170539854767 0.9922137522194456 0.0
4.93200119575972 0.9247090920592975 0.0
6.20679636316332 1.642443126922768 0.0
7.418963044745086 1.587405313446662 0.0
2.98103695524982 0.412594686552066 0.0
2.420975602092416 1.592770352831584 0.0
7.97902439790374 0.4072296471687943 0.0
6.779024397902082 0.4072296471687297 0.0
1.130444757308209 0.9859238872709168 0.0
0.8901814758011342 1.60566856081121 0.0
4.263670373274499 0.9915754392410991 0.0
3.096698167273431 1.009056907826855 0.0
6.088506433998166 0.9857489435828969 0.0
1.902225037409936 1.003483800311746 0.0
7.288506433998439 0.9857489435828686 0.0
8.498964973312972 1.005823551167602 0.0
2.307571737417198 1.008136792450924 0.0
8.100397971125554 1.000138280273345 0.0
6.900397971125225 1.000138280273792 0.0
3.499307350770321 0.9996496628144824 0.0
5.703656022566558 0.9885479657552226 0.0
4.719420624357892 1.622286409566126 0.0
4.099803549896894 0.3600308081356619 0.0
1.286100671532495 0.3637431910670685 0.0
9.120549139677793 1.655065205594329 0.0
9.11726214008418 0.3400668903113251 0.0
4.642568097328033 0.3514924793220939 0.0
9.630437629189052 0.3309104953729904 0.0
9.674493769554315 1.668196579944218 0.0
1.936458797611609 0.3337070483410596 0.0
3.461817573918652 0.3447876019040473 0.0
8.440152788772068 1.649667667046397 0.0
6.973083089482548 1.643748677366674 0.0
3.126874515006838 1.659115470008545 0.0
6.070607878384977 0.3410183041038941 0.0
7.255014454789089 0.32792256737713 0.0
8.462493615948901 0.3368393217476116 0.0
9.236261261261264 0.9276047786917867 0.0
5.885444386845415 1.667751020273455 0.0
0.8062340689595878 0.3261579034781319 0.0
2.29463843780282 0.308358158429197 0.0
8.10536156219338 1.691641841570632 0.0
4.041916759198581 0.7211683801597477 0.0
1.324377365289917 0.710525897087282 0.0
9.023167917315867 1.292262965009952 0.0
2.044244009166302 1.693807225416931 0.0
0.7675765545556328 0.8969765944392112 0.0
2.86965991063896 0.7069213925303978 0.0
6.330340089355722 1.293078607468788 0.0
7.530340089355831 1.29307860746885 0.0
2.509347777214458 1.27231292939881 0.0
7.890652222779963 0.7276870706009825 0.0
6.690652222780154 0.7276870706013264 0.0
4.380959112578968 1.65866292149053 0.0
0.3278422400819535 1.233362752678148 0.0
5.754468991464942 0.3469215055361071 0.0
9.69195804401614 0.7000195364707393 0.0
9.691250997975434 1.303243780084337 0.0
5.54324561063747 1.237401556904767 0.0
9.044596057577811 0.6843248705785732 0.0
5.208929198448351 0.3519433027337513 0.0
3.708880196230617 1.249762029554333 0.0
1.713349558540635 1.234899745098077 0.0
4.586522821995393 0.9261740906803194 0.0
5.241145838821565 0.7007005766013242 0.0
1.434457446926135 1.701926055218157 0.0
0.2821921707428039 0.3393165318407161 0.0
3.42846431357046 1.714274134409306 0.0
5.26283485467567 1.710141275531951 0.0
3.966530105129177 1.718376080180638 0.0
4.891301048299285 1.259923533724591 0.0
0.2787500712946937 0.6906723798523376 0.0
1.822166578929051 0.7301892210727335 0.0
8.593276160688786 1.287322908694633 0.0
2.386017956680413 0.7288816957021155 0.0
3.576911792171353 0.7225526638483954 0.0
8.013982043315597 1.271118304297217 0.0
6.82303669320588 1.277631295759485 0.0
2.891837633696712 1.215141906356511 0.0
8.708162366297856 0.7848580936429009 0.0
7.496736072543097 0.7897651325976158 0.0
6.296736072542775 0.7897651325982009 0.0
5.523181420933933 0.7588744249744506 0.0
4.725538117155759 0.6529070682798582 0.0
2.736307197014292 0.273961667653487 0.0
7.663692802980817 1.726038332346062 0.0
6.446842959287713 1.783714797320288 0.0
1.126188383272983 1.743715177525389 0.0
2.64757240694847 1.787239829472812 0.0
6.546646507559373 0.2589894635657943 0.0
7.746646507561152 0.2589894635657218 0.0
4.079302268890254 1.221431431691139 0.0
4.433746883463333 0.2983726043497702 0.0
1.032697650548726 1.318076986199429 0.0
1.309492735411376 1.208980965369829 0.0
3.896105387998365 0.2579746081881307 0.0
9.378751775005455 1.725996478164223 0.0
9.3965279828929 0.2649862374471925 0.0
1.515757555362918 0.2603060454608533 0.0
4.959097093232828 1.726144293543605 0.0
4.912501341257775 0.2529154558175828 0.0
4.342421824442713 1.285376618065631 0.0
7.023506283123107 0.293611963231815 0.0
8.215829626877609 0.2682061590942965 0.0
5.28145265730745 1.291130016052329 0.0
8.693992162747364 1.744100892812201 0.0
0.6256567126095668 1.775064851453201 0.0
0.2724967459749605 1.756941612685287 0.0
8.90781713264278 0.2741674349222226 0.0
7.184202236567151 1.709454269177068 0.0
3.212962614055919 0.2641656831057426 0.0
0.6761590188374282 0.6746441670621973 0.0
1.020489328989316 0.2487299689497893 0.0
1.485017749467193 1.402133856149482 0.0
6.734223224917944 1.790518105434539 0.0
2.657549589911705 0.7636227781082678 0.0
6.542590471647475 1.237213715285722 0.0
7.742745187066703 1.235538225115726 0.0
0.5794341726414672 0.2480285055479751 0.0
1.842901067642841 1.760146518280044 0.0
3.84389577648662 0.7524680119172447 0.0
3.061589173628368 1.407936939342627 0.0
6.144447294584154 0.5911674363009913 0.0
7.344447294585433 0.5911674362995804 0.0
8.544447294586682 0.5911674362982269 0.0
5.491507940982565 0.1734458797927824 0.0
[...]
<PointData Vectors="fields">
<DataArray type="Float64" Name="U" NumberOfComponents="3" format="ascii">
0.0 0.0 0.0
0.03287823419925543 0.0 0.0
0.002831326417158882 -0.005996020900398838 0.0
0.016339142743960203 -0.05261265251483767 0.0
0.030082324344103267 -0.005740606362447923 0.0
0.0003279377575021512 -0.0062964688531183055 0.0
0.0010142572944533083 -0.010346517304709311 0.0
0.0016337671768158076 -0.013915818327360958 0.0
0.00215472559199104 -0.017054494713390943 0.0
0.0026098313969660373 -0.02004687902087489 0.0
0.003047509450708836 -0.022921489372549564 0.0
0.0034866952743341393 -0.02568927843178487 0.0
0.003967247701399286 -0.02836414345213725 0.0
0.0044633755327001725 -0.03094747316071362 0.0
0.004999481383750808 -0.0334125887184399 0.0
0.005564003755988971 -0.035758708658666594 0.0
0.006182962623973316 -0.03798695970350033 0.0
0.006819727887438732 -0.040078996083192944 0.0
0.007528542242056412 -0.04203407734852025 0.0
0.008244517921959025 -0.04384284172967746 0.0
0.009023553324916767 -0.04549658864278601 0.0
0.009807019302446473 -0.04698082086291166 0.0
0.010627929269957374 -0.0483053428467287 0.0
0.01144765808447535 -0.04942695227830213 0.0
0.01227180168127863 -0.050427518326761865 0.0
0.013122080558275885 -0.051227379263270985 0.0
0.013958504822786743 -0.05184208445561049 0.0
0.014815716216747847 -0.05228387506926646 0.0
0.015656175411299968 -0.05253446295661712 0.0
0.016528290902932202 -0.05261072644297758 0.0
0.017374172283802194 -0.052504679501936505 0.0
0.018217605705285175 -0.05221341160046764 0.0
0.019055017030676788 -0.051745080838246055 0.0
0.019879844622386934 -0.05109452498361407 0.0
0.02068052415087312 -0.050276280559903054 0.0
0.021496187543165235 -0.049296182705945144 0.0
0.022265498119920447 -0.048103807838046346 0.0
0.023035937762523953 -0.04680061241538444 0.0
0.02377066947812615 -0.045332170125381564 0.0
0.024502727931984915 -0.04368476876249183 0.0
0.02519248171973986 -0.04189197884359641 0.0
0.02585683951452126 -0.03996144909104088 0.0
0.026472654493245602 -0.0378632604712331 0.0
0.027074723033015488 -0.035680694159239044 0.0
0.027630991650483924 -0.03336839669079941 0.0
0.02816662882736997 -0.030929145807086306 0.0
0.02865968179051788 -0.028373409449894683 0.0
0.02913170295160885 -0.025727151586240872 0.0
0.029563663719307187 -0.022981507139063027 0.0
0.030004868899764604 -0.02013199218605144 0.0
0.0304381919422575 -0.017180134354943522 0.0
0.03092011997191854 -0.01406421930304144 0.0
0.031456700079083036 -0.010685117330710153 0.0
0.032282188407344786 -0.006659640473804572 0.0
0.027811302457795783 -0.002359720494870067 0.0
0.024520681480101288 -0.0036624970471766352 0.0
0.021538369985299902 -0.004488764414092038 0.0
0.018796253504188315 -0.005110973754946867 0.0
0.016136494853702495 -0.00550267462208302 0.0
0.013523999725969252 -0.005758171034554907 0.0
0.010913857703579857 -0.00591221385881773 0.0
0.00826544199436891 -0.005981350372072628 0.0
0.005570050438000974 -0.005995876340714909 0.0
0.0028293477118971856 -0.008744946339853248 0.0
0.00283734312569905 -0.011529237461721633 0.0
0.002888868989075792 -0.014356275306409455 0.0
0.003007028248167858 -0.017211882852026534 0.0
0.003202218063088412 -0.02005642627803468 0.0
0.0034664968100867393 -0.022853364503674267 0.0
0.003803985731882549 -0.025612583876077163 0.0
0.004199285786251142 -0.02827591696959459 0.0
0.004652971927786112 -0.030842157032187463 0.0
0.005170192609114261 -0.033306427089462076 0.0
0.00571147679115901 -0.03564465444791429 0.0
0.006319949314159199 -0.037860580046925794 0.0
0.00693607661337527 -0.03994172116917628 0.0
0.007609801544465632 -0.04188041060696806 0.0
0.008302986015678984 -0.043677882311274084 0.0
0.009023974831729266 -0.04532121726974422 0.0
0.009751323003633766 -0.046773201483198766 0.0
0.01051969390714801 -0.0481307696782016 0.0
0.011308430871465994 -0.049282497065266724 0.0
0.012095368707933487 -0.050272556795525704 0.0
0.012920034281172083 -0.05110091828410895 0.0
0.013774206277704155 -0.051745572709882406 0.0
0.014603843545450067 -0.05221271991561322 0.0
0.015475618828719461 -0.05250496846555156 0.0
0.01722489773571504 -0.05252465397663239 0.0
0.018073693652196313 -0.05227176548599922 0.0
0.018915452989062977 -0.05184032418391162 0.0
0.019775389121016722 -0.05123761682564311 0.0
0.020624506517530432 -0.05043057082552409 0.0
0.0214680328636073 -0.04944870416681696 0.0
0.022254956284866234 -0.048301312995161015 0.0
0.02304818457078923 -0.04697971926227757 0.0
0.023811888098543163 -0.04549834447495172 0.0
0.024561063133672487 -0.04384885032731792 0.0
0.02525571566226474 -0.04200860212944912 0.0
0.025940140027273434 -0.040077943044826474 0.0
0.026572554666194854 -0.03797019453177849 0.0
0.027164084733719094 -0.03572861114480491 0.0
0.0277339591637769 -0.03335943822545585 0.0
0.028249399159054084 -0.03086943612769685 0.0
0.028700594238721268 -0.028277013179526845 0.0
0.029115082494389724 -0.02557708427476421 0.0
0.02945134377286901 -0.02279935211800612 0.0
0.02972016734341194 -0.01995360524455955 0.0
0.029906858634553557 -0.01708076645750755 0.0
0.030018558299727122 -0.014194209052194772 0.0
0.03007355383435026 -0.011337648136214462 0.0
0.03008647225967421 -0.008517626012772063 0.0
0.027312191610828672 -0.005742021198674159 0.0
0.024585075613392703 -0.005728002331381298 0.0
0.021909605532067326 -0.0056633063723498574 0.0
0.019263605018351716 -0.0055144985212655 0.0
0.016626302317544493 -0.005239145037929433 0.0
0.013939619878407345 -0.004847662648336944 0.0
0.011168383064334797 -0.004219827720363716 0.0
0.008175334871082393 -0.003348082875801748 0.0
0.004621250532361507 -0.0018932772629364385 0.0
0.016023042500527416 -0.027139796941636166 0.0
0.016047848481156902 -0.04124701578291927 0.0
0.016449974835922185 -0.050255665640216426 0.0
0.016453991049045137 -0.021367164477219952 0.0
0.016150365479041737 -0.036858950200552174 0.0
0.016254010722253135 -0.04769736860300282 0.0
0.01641483178693586 -0.052716665192991743 0.0
0.01922139107093322 -0.016537943249683003 0.0
0.016788394711974085 -0.05263019152735707 0.0
0.012872844276397954 -0.034790549200187225 0.0
0.01421331127514102 -0.04646101820160235 0.0
0.012594799872291717 -0.029750402557437737 0.0
0.013758733445261446 -0.042947345213687434 0.0
0.015305316249689666 -0.05104068247820488 0.0
0.018789306401415785 -0.04629839098801807 0.0
0.019830516661916077 -0.03498183796220669 0.0
0.017778702009900137 -0.050872664237116144 0.0
0.01943221933549368 -0.042987436245614304 0.0
0.020667239330367806 -0.029726160209010102 0.0
0.015605823977830082 -0.05221513906012308 0.0
0.011927550133535244 -0.019842008507559787 0.0
0.021281923853655706 -0.014382932519536117 0.0
0.011188252519455016 -0.014572810708753327 0.0
0.01641762129456756 -0.05287666949119746 0.0
0.022305144502473267 -0.023579671927431024 0.0
0.018082052103463125 -0.051263359238138684 0.0
0.016211616641528034 -0.05284685894238434 0.0
0.010495411992078117 -0.028880322098759355 0.0
0.011801104701141865 -0.040069685106844825 0.0
0.01397560600255282 -0.04954132015086435 0.0
0.009732434638537648 -0.023447688743593997 0.0
0.011293836982725819 -0.03558444809681825 0.0
0.013141116159894215 -0.04679702751569258 0.0
0.020529792713224432 -0.04220796833700482 0.0
0.019153494893591392 -0.04834050335934277 0.0
0.02110226931453713 -0.03802956507440422 0.0
0.022621211944465165 -0.02329932717201344 0.0
0.009860458293363614 -0.012395054334518705 0.0
0.017448345178050072 -0.052354711480760714 0.0
0.02287939253928196 -0.02949693365870034 0.0
0.023900723541865294 -0.012001082369880218 0.0
0.015029379340945913 -0.05211739166970673 0.0
0.01954033269392949 -0.04891778787477019 0.0
0.01581051272077043 -0.011558438325098251 0.0
0.016194840173047367 -0.011483419306843334 0.0
0.016407504749294026 -0.052956978698439836 0.0
0.013166748333543758 -0.049432033129858687 0.0
0.010926578505434052 -0.039915653946335616 0.0
0.011669718128056089 -0.043870478102393834 0.0
0.022260946299853333 -0.03836383868404451 0.0
0.02289366993370285 -0.03374964542900678 0.0
0.02065209372367614 -0.0456757967517506 0.0
0.016313059240090876 -0.021966435208146378 0.0
0.024415728701068652 -0.018419764339212785 0.0
0.016400859658429436 -0.05178311167265957 0.0
0.016471786473807648 -0.044957131157930326 0.0
0.016472227241121712 -0.050180706921072425 0.0
0.016431484438572144 -0.03239188353896211 0.0
0.016527473516289318 -0.04130757119977687 0.0
0.01627265120254138 -0.027180243947663312 0.0
0.016467560865170414 -0.03720210041211804 0.0
0.016378154586824248 -0.03231891306345131 0.0
0.01639874282371522 -0.04480174122580265 0.0
0.016409122263632808 -0.04798589448203129 0.0
0.01643699854955925 -0.051762541076767254 0.0
0.017112212612379777 -0.052676920929106495 0.0
0.014086813538434845 -0.051056886567075806 0.0
0.008221888961404368 -0.02422108189152289 0.0
0.007776552103064411 -0.018382666019615183 0.0
0.025197900140732466 -0.0184804390379648 0.0
0.015520583361516854 -0.05255651420521991 0.0
0.025513584538545023 -0.010200071022986704 0.0
0.00736777721691921 -0.010467973221802486 0.0
0.00880836797471746 -0.032763212834063055 0.0
0.012319696288885316 -0.047609553479297 0.0
0.008561887133707792 -0.02784878987129148 0.0
0.011331416092608581 -0.04407585899493772 0.0
0.02137937330765666 -0.04508130223745052 0.0
0.01937184975358233 -0.050136808929926446 0.0
0.02233312183122978 -0.04152529597310117 0.0
0.02446594550168377 -0.027663183404290047 0.0
0.01711238261352524 -0.01667445795960322 0.0
0.013891247230324612 -0.050956941480101006 0.0
0.007196073745241945 -0.01721017045800071 0.0
0.009208914754134871 -0.036959051085773596 0.0
0.008576196194913491 -0.032132474045015756 0.0
0.015344526772283375 -0.05092515448003833 0.0
0.012796756276895523 -0.024755853782555473 0.0
0.012518070010571515 -0.019807383336887165 0.0
0.02404380105111726 -0.03401803705077714 0.0
0.015236228440721903 -0.016594630753674424 0.0
0.013936616627709534 -0.0429507767985183 0.0
0.014805161622089988 -0.04884537662804199 0.0
0.013589864097481079 -0.03883865125165327 0.0
0.018991086158235772 -0.03936960388537198 0.0
0.019288890987467437 -0.0348417805557995 0.0
0.01825753441009464 -0.04643038185022399 0.0
0.018103237355749386 -0.05199557470197594 0.0
0.019732324510387398 -0.010117572425312082 0.0
0.01852024847447816 -0.051447811417465315 0.0
0.020067426488177706 -0.009501912258526805 0.0
0.012161460033727946 -0.010100720148612208 0.0
0.015853397170524572 -0.05221089626149792 0.0
0.02035556499465479 -0.019533869502087388 0.0
0.017053114443484025 -0.052697107194979685 0.0
0.017727531240097502 -0.04926045022815004 0.0
0.019151953685393023 -0.029954894683097918 0.0
0.01630893302958176 -0.05259242626997125 0.0
0.016745836659328165 -0.0527738648168943 0.0
0.025124792620515122 -0.026131954849213393 0.0
0.007287074182101328 -0.008338050447897458 0.0
0.021009027370499894 -0.047333227847362616 0.0
0.015565414836908549 -0.05261009230806568 0.0
0.019495904545601715 -0.05045571504338966 0.0
0.016513748494469856 -0.05290407510497591 0.0
0.012519862355604303 -0.008809484441520937 0.0
0.013286219768705997 -0.03138335119591153 0.0
0.012833906272914733 -0.025855243527248443 0.0
0.013689221203350366 -0.03805650243139523 0.0
0.014828848042182145 -0.04846095939703448 0.0
0.01342925202703404 -0.03334140227143553 0.0
0.014389394572924308 -0.045400337171373276 0.0
0.01818098006180885 -0.043146482183690306 0.0
0.01899747534158529 -0.024340227317588954 0.0
0.01839355451892173 -0.03919779366297301 0.0
0.017526668626746685 -0.04903919968964162 0.0
0.016956940179913064 -0.052259382595531756 0.0
0.016060439375382977 -0.05276186919270983 0.0
0.0098809084233512 -0.041560519917544135 0.0
0.009049752565929428 -0.037283443654671664 0.0
0.011703481075065095 -0.047940676619615825 0.0
0.02605086406250437 -0.021807156694875027 0.0
0.02369271036473787 -0.04064952706480368 0.0
0.021114458445033166 -0.04731123350614065 0.0
0.024095613879067217 -0.03638891375941397 0.0
0.017251850724897707 -0.05107929263770525 0.0
0.01482395210773808 -0.05210340128244553 0.0
0.02058917495930768 -0.020513045275657817 0.0
0.019060265461762975 -0.024482140333213668 0.0
0.013068990998526443 -0.05009759188475116 0.0
0.006672892242769008 -0.014669220328095926 0.0
0.026565835434687702 -0.01416573167418887 0.0
0.007183026192556292 -0.027343258410815856 0.0
0.016485555776811815 -0.052782388758546905 0.0
0.01622494595936657 -0.052752044600988326 0.0
0.0171851524505149 -0.051993056710934155 0.0
0.022094342565773965 -0.04362221587848508 0.0
0.02491157396821953 -0.030820719909017302 0.0
0.01604365700092443 -0.0527151687355201 0.0
0.007033803174610188 -0.024388128479240385 0.0
0.02686068616622018 -0.014577097997807285 0.0
0.026710411043076712 -0.009524016529008271 0.0
0.025916330926231416 -0.02153194125650308 0.0
0.010290706443506745 -0.0421618021108066 0.0
0.011085243371941595 -0.04574092650152879 0.0
0.01223716842155818 -0.015170106450661374 0.0
0.006280678298268609 -0.020408615683657885 0.0
0.021323567314812216 -0.026874677147251072 0.0
0.010808617648169202 -0.045921442050564254 0.0
0.014230543920367598 -0.04090823741554993 0.0
0.014915406299875502 -0.04748695977028094 0.0
0.013988519159722483 -0.03651914222329406 0.0
0.005807637820555797 -0.013588139965187086 0.0
0.02519538962096768 -0.03149791742762731 0.0
0.015260213881431624 -0.049985294957003684 0.0
0.019548389361424834 -0.04460593567489266 0.0
0.018345219071481213 -0.04983719708789123 0.0
0.02008873069406328 -0.040716716170675356 0.0
0.021349319705473685 -0.026586554995384083 0.0
0.018205029564865072 -0.05213066182172639 0.0
0.013711699632545439 -0.028012084931780066 0.0
0.022740778899719396 -0.04338121202926079 0.0
0.023680887969234423 -0.039540867901826815 0.0
0.020410834965762393 -0.04912464202350806 0.0
0.022664849907392905 -0.015348437757544034 0.0
0.013755308328052685 -0.014535278678916925 0.0
0.014208411829577402 -0.05160975197132217 0.0
0.018295179077806027 -0.05010488431128428 0.0
0.008633917173493889 -0.039236503404146125 0.0
0.0078126565646204 -0.03467125471500959 0.0
0.017871699761656458 -0.05157127309282241 0.0
0.013389305619549421 -0.023317756446445195 0.0
0.022149330778101314 -0.033000642995802826 0.0
0.018704180045667214 -0.013325027968386775 0.0
0.01905587586216485 -0.05132611236105324 0.0
0.02313461188530256 -0.00789666071028191 0.0
0.012198162962375006 -0.048801601297101545 0.0
0.007129379546517397 -0.030366498022948624 0.0
0.017365462948589216 -0.05241541558099958 0.0
0.012813534354639798 -0.05005749639524267 0.0
0.01876870666771515 -0.04811375063924597 0.0
0.024697719691683984 -0.03675973965885666 0.0
0.016386633045075347 -0.052924081272984834 0.0
0.01693575803354666 -0.008790452468746076 0.0
0.015248314902489507 -0.05180560733675893 0.0
0.016062933646202412 -0.05103131232046629 0.0
0.015278953859849431 -0.029783156624377024 0.0
0.015603032174549348 -0.042959239224563496 0.0
0.015376232178678569 -0.034800600302966694 0.0
0.015736487822040207 -0.046455389062381704 0.0
0.006219454116494238 -0.020891439596918956 0.0
0.01736072484294096 -0.008326405228294986 0.0
0.020539141723378267 -0.04923202077026477 0.0
0.016466542405659933 -0.05293029610893582 0.0
0.015861488459398464 -0.05271588237989681 0.0
0.01294379181271798 -0.011643574358986959 0.0
0.026597672489551187 -0.024414194953602364 0.0
0.020761163606242708 -0.032549944701335654 0.0
0.020780359825041155 -0.03709706997124047 0.0
0.019338320022396018 -0.04491585692993125 0.0
0.01291184450776188 -0.041021425625381046 0.0
0.013422709753500005 -0.04483455822478276 0.0
0.014648441188450056 -0.05010792343678189 0.0
0.007465048202165236 -0.03483507313442296 0.0
0.006815248222921287 -0.02981303887704028 0.0
0.013659903266888535 -0.04819739007453153 0.0
0.011779744273711992 -0.037847558404017996 0.0
0.012315727444097209 -0.042074966676474895 0.0
0.018910490786544165 -0.032508586909026777 0.0
0.01835731268653036 -0.013695640958214187 0.0
0.009750196711719582 -0.008620445630150133 0.0
0.022601430529869897 -0.007417362361694985 0.0
0.017213208288549893 -0.046420721896130474 0.0
0.017637742585925154 -0.034994511586150266 0.0
0.016884108930475733 -0.05093962662583808 0.0
0.0174046592720456 -0.042900837289009335 0.0
0.017772829879910378 -0.029567215587308127 0.0
0.025429500830573652 -0.028923680197405224 0.0
0.009883531704686697 -0.006741310497259622 0.0
0.02079576761411642 -0.04038703492043631 0.0
0.019463770743839696 -0.04711543514473269 0.0
0.02132842694129938 -0.03597894594721989 0.0
0.01543512761385168 -0.03929749927461982 0.0
0.015797558596317228 -0.04638736513300124 0.0
0.015341974821979512 -0.034689604549074805 0.0
0.017852527353968188 -0.052335456413159724 0.0
0.015904882914403617 -0.04926519644713001 0.0
0.011571275975912657 -0.036684138480334014 0.0
0.011155347164260403 -0.03182031725931621 0.0
0.019459843420781303 -0.05082262016021751 0.0
0.01683187170044608 -0.052770123260431984 0.0
0.013765581885804123 -0.02218822630467609 0.0
0.015313202915700052 -0.02447850997467819 0.0
0.015072418141486764 -0.01876994857688539 0.0
0.014593189055007987 -0.0508125492466896 0.0
0.015386019934317438 -0.029885527829573093 0.0
0.008695930899235677 -0.0390191740681623 0.0
0.009682209489423966 -0.043073187745529415 0.0
0.01649818731494995 -0.05279698038572599 0.0
0.0247797802832279 -0.034265831714100914 0.0
0.02180974898751703 -0.045971668613235886 0.0
0.012749409406510169 -0.04623802231958738 0.0
0.012052812501671827 -0.04264636366194103 0.0
0.01052383427171281 -0.0252931924034686 0.0
0.027530247286015955 -0.006792316430469556 0.0
0.005719558909940897 -0.008887826082269831 0.0
0.01732921512549434 -0.0187606475661144 0.0
0.017127810010664025 -0.05174706575634417 0.0
0.01611876869485065 -0.05114284873801804 0.0
0.015787781084414258 -0.05171184450224276 0.0
0.014474232208731232 -0.008578432760192888 0.0
0.014698477175800098 -0.052170551774206105 0.0
0.02700990983479555 -0.0188322981492907 0.0
0.015587700048141966 -0.024271904335854917 0.0
0.021602150221104736 -0.012870527672135394 0.0
0.015059574587951529 -0.051519110503540674 0.0
0.015856503149782587 -0.043205122624641885 0.0
0.01603082209430769 -0.049106126249954835 0.0
0.015738479642187567 -0.039289728916711744 0.0
0.010649607501332231 -0.022579455710856084 0.0
0.01085752154817151 -0.03142326790063553 0.0
0.010519920554128828 -0.02608993393132072 0.0
0.013683635996941638 -0.04843882159833243 0.0
0.01290484844110635 -0.04533357279068707 0.0
0.01667540737533052 -0.0523446365046656 0.0
0.01331952788025949 -0.05093122644801566 0.0
0.02267797074622198 -0.021122531879524505 0.0
0.022898064351524004 -0.02974392329367574 0.0
0.020971409499214808 -0.04296154496728416 0.0
0.01588717119910608 -0.05175933789849813 0.0
0.01846976522482993 -0.05095574645141955 0.0
0.005470449714185676 -0.024740166907904156 0.0
0.0100394464252264 -0.020383343459649723 0.0
0.010537870710310053 -0.017526288023111573 0.0
0.01903295503769881 -0.026778399478985932 0.0
0.018087066395904294 -0.04469252309613481 0.0
0.018425172866214756 -0.040947577021429656 0.0
0.01745363333244738 -0.04996629845343454 0.0
0.020229027951942615 -0.04661498381623379 0.0
0.01493417812460648 -0.044874350238319774 0.0
0.01555641356089021 -0.0501192562484891 0.0
0.01468864311861341 -0.04111520923059025 0.0
0.02686680972395448 -0.011971659010081648 0.0
0.016324604786105763 -0.0523529245671919 0.0
0.019068899770155398 -0.041409502236540656 0.0
0.01928960888010259 -0.03745998964128285 0.0
0.018125938530860725 -0.048035726074329134 0.0
0.017633877544008216 -0.047860091822828556 0.0
0.01198505543721697 -0.048907315807771926 0.0
0.016799132618687818 -0.0527997377579397 0.0
0.017959639897573352 -0.04461719442214195 0.0
0.018675929093222784 -0.03206821176284031 0.0
0.018606823353710198 -0.021614912252311297 0.0
0.021885486631676346 -0.04605538112651415 0.0
0.010211813663704985 -0.011906147093544064 0.0
0.022179697035289055 -0.011276788023199907 0.0
0.02422138197390954 -0.03898866500139266 0.0
0.009077656705100247 -0.019917359686647967 0.0
0.015286079398534061 -0.0522906241426181 0.0
0.02245276590682554 -0.017147190665887525 0.0
0.02180365041405223 -0.01773022217818772 0.0